,Name,SMILES,Solubility
0,"(1,1-dimethylpropyl)benzene",CCC(C)(C)c1ccccc1,-4.5007459195
1,"(1,3-benzothiazol-2-ylsulfanyl)(tert-butyl)amine",CC(C)(C)NSc1sc2ccccc2n1,-5.25699701315
2,"(1,5,5-trimethyl-6-bicyclo[2.2.1]heptanyl) acetate",CC(=O)OC1C(C)(C)C2CCC1(C)C2,-3.8745968837
3,(1-ethoxy-1-oxopropan-2-yl) 5-[2-chloro-4-(trifluoromethyl)phenoxy]-2-nitrobenzoate,CCOC(=O)C(C)OC(=O)c1cc(Oc2ccc(cc2Cl)C(F)(F)F)ccc1[N+]([O-])=O,-6.6230386723
4,(1-hydroxy-1-phosphonoethyl)phosphonic acid,OC=O,1.17268520455
5,"(1-methyl-1,2-ethanediyl)bis[oxy(methyl-2,1-ethanediyl)] diacrylate",CC(COCC(C)OC(=O)C=C)OCC(C)OC(=O)C=C,-1.8755690909
6,"(1-methylethyl)-1,1'-biphenyl",CC(C)c1ccc(cc1)c2ccccc2,-5.6567860392
7,(10Z)-1-oxacycloheptadec-10-en-2-one,O=C1CCCCCCC\C=C/CCCCCCO1,-5.6293975546
8,(13Z)-N-octadecyldocos-13-enamide,CCCCCCCCCCCCCCCCCCNC(=O)CCCCCCCCCCC\C=C/CCCCCCCC,-7.42142442085
9,(13Z)-docos-13-enamide,CCCCCCCC\C=C/CCCCCCCCCCCC(N)=O,-7.5943639656
10,"(1E)-1-(2,6,6-trimethylcyclohex-1-en-1-yl)pent-1-en-3-one; (1E)-1-(2,6,6-trimethylcyclohex-2-en-1-yl)pent-1-en-3-one; (3E)-3-methyl-4-(2,6,6-trimethylcyclohex-1-en-1-yl)but-3-en-2-one; (3E)-3-methyl-4-(2,6,6-trimethylcyclohex-2-en-1-yl)but-3-en-2-one",CCC(=O)/C=C/C1C(=CCCC1(C)C)C,-3.9923409786
11,"(1E,19E)-10,11-dioctylicosa-1,19-diene-1,20-diamine",CCCCCCCCCCCCCCCCCCCC\C=C\C\C=C\CCCCCCCCCCCNCCCCCCCCCCCCCCCCCCCC\C=C\C\C=C\CCCCCCCCCCC,-9.7071062552
12,"(1E,5E,9E)-cyclododeca-1,5,9-triene",C\1C\C=C/CC\C=C/CC/C=C1,-5.5641262584
13,(1R)-1-phenylethan-1-amine,CC(N)c1ccccc1,-0.4813817083
14,"(1R,2R,4R)-1,7,7-trimethylbicyclo[2.2.1]heptan-2-yl acetate (1S,2S,4S)-1,7,7-trimethylbicyclo[2.2.1]heptan-2-yl acetate",CC(=O)O[C@H]1C[C@H]2CC[C@@]1(C)C2(C)C,-3.0887781924
15,"(1R,2R,4S,5S,7S)-9-methyl-3-oxa-9-azatricyclo[3.3.1.0²,?]nonan-7-yl (2S)-3-hydroxy-2-phenylpropanoate",CN1[C@@H]2CC(C[C@H]1C3OC23)OC(=O)[C@H](CO)c4ccccc4,-1.0074478133
16,"(1R,2S,5R)-5-methyl-2-(propan-2-yl)cyclohexan-1-ol",CC(C)[C@@H]1CC[C@@H](C)C[C@H]1O,-2.599149908475
17,"(1R,2S,5R)-5-methyl-2-(propan-2-yl)cyclohexyl (2S)-2-hydroxypropanoate",CC(C)[C@@H]1CC[C@@H](C)C[C@H]1OC(=O)[C@H](C)O,-2.9799872046
18,"(1R,2S,5R)-5-methyl-2-(propan-2-yl)cyclohexyl acetate",CC(C)[C@@H]1CC[C@@H](C)C[C@H]1OC(C)=O,-3.9751165598
19,"(1R,4E,9S)-4,11,11-trimethyl-8-methylidenebicyclo[7.2.0]undec-4-ene",C\C1=C/CCC(=C)[C@H]2CC(C)(C)[C@@H]2CC1,-6.35158425565
20,"(1R-(1alpha,2beta,4beta,6alpha))-2,2,7-Trimethyl-3-oxatricyclo(4.1.1.02,4)octane",CC1(C)[C@H]2C[C@@H]3O[C@]3(C)[C@@H]1C2,-2.5936884915
21,"(1S,10R,11S,14S,15S)-15-methyltetracyclo[8.7.0.0²,?.0¹¹,¹?]heptadeca-2,4,6-triene-5,14-diol",C[C@]12CC[C@H]3[C@@H](CCc4cc(O)ccc34)[C@@H]1CC[C@@H]2O,-5.2590967118
22,"(1S,2R,10R,11S,14R,15S)-14-ethynyl-14-hydroxy-15-methyltetracyclo[8.7.0.0²,?.0¹¹,¹?]heptadec-6-en-5-one",C[C@]12CC[C@H]3[C@@H](CCC4=CC(=O)CC[C@H]34)[C@@H]1CC[C@@]2(O)C#C,-4.7266486308
23,"(1S,2R,10R,11S,14S,15S)-14-hydroxy-2,15-dimethyltetracyclo[8.7.0.0²,?.0¹¹,¹?]heptadec-6-en-5-one",C[C@]12CC[C@H]3[C@@H](CCC4=CC(=O)CC[C@]34C)[C@@H]1CC[C@@H]2O,-5.0780248931
24,"(1S,2R,10R,11S,15S)-2,15-dimethyltetracyclo[8.7.0.0²,?.0¹¹,¹?]heptadec-6-ene-5,14-dione",C[C@]12CC[C@H]3[C@@H](CCC4=CC(=O)CC[C@]34C)[C@@H]1CCC2=O,-3.6374518234
25,"(1S,2R,10S,11S,14R,15S,17S)-14,17-dihydroxy-14-(2-hydroxyacetyl)-2,15-dimethyltetracyclo[8.7.0.0²,?.0¹¹,¹?]heptadeca-3,6-dien-5-one",C[C@]12C[C@H](O)[C@H]3[C@@H](CCC4=CC(=O)C=C[C@]34C)[C@@H]1CC[C@]2(O)C(=O)CO,-3.2085401668
26,"(1S,2R,5S,10R,11S,15S)-5-hydroxy-2,15-dimethyltetracyclo[8.7.0.0²,?.0¹¹,¹?]heptadec-7-en-14-one",C[C@]12CC[C@H]3[C@@H](CC=C4C[C@@H](O)CC[C@]34C)[C@@H]1CCC2=O,-3.9371360487
27,"(1S,2R,5S,10S,11S,14R,15R)-2,15-dimethyl-14-[(2R)-6-methylheptan-2-yl]tetracyclo[8.7.0.0²,?.0¹¹,¹?]heptadec-7-en-5-ol",CC(C)CCC[C@@H](C)[C@H]1CC[C@H]2[C@@H]3CC=C4C[C@@H](O)CC[C@]4(C)[C@H]3CC[C@]12C,-7.1044601558
28,"(1S,2R,8S,10S,11S,13R,14S,15S,17S)-8-fluoro-17-hydroxy-14-(2-hydroxyacetyl)-2,13,15-trimethyltetracyclo[8.7.0.0²,?.0¹¹,¹?]heptadeca-3,6-dien-5-one",C[C@@H]1C[C@H]2[C@@H]3C[C@H](F)C4=CC(=O)C=C[C@]4(C)[C@H]3[C@@H](O)C[C@]2(C)[C@H]1C(=O)CO,-3.267306872166667
29,"(1S,2S)-1-methyl-4-(propan-2-yl)-7-oxabicyclo[2.2.1]heptan-2-ol",CC(C)[C@@]12CC[C@@](C)(O1)[C@@H](O)C2,-0.288092629
30,"(1S,2S,4S)-1,7,7-trimethylbicyclo[2.2.1]heptan-2-yl 2-methylprop-2-enoate",CC(=C)C(=O)OC1CC2CCC1(C)C2(C)C,-4.5778078487
31,"(1S,2S,4S)-1,7,7-trimethylbicyclo[2.2.1]heptan-2-yl prop-2-enoate",CC1(C)[C@H]2CC[C@]1(C)C(C2)OC(=O)C=C,-4.3025593098999995
32,"(1S,3R,5R,6S,8R,10R,11S,13R,15R,16S,18R,20R,21S,23R,25R,26S,28R,30R,31S,33R,35R,36S,38R,40R,41R,42R,43R,44R,45R,46R,47R,48R,49R,50R,51R,52R,53R,54R,55R,56R)-5,10,15,20,25,30,35,40-octakis(hydroxymethyl)-2,4,7,9,12,14,17,19,22,24,27,29,32,34,37,39-hexadecaoxanonacyclo[36.2.2.2³,?.2?,¹¹.2¹³,¹?.2¹?,²¹.2²³,²?.2²?,³¹.2³³,³?]hexapentacontane-41,42,43,44,45,46,47,48,49,50,51,52,53,54,55,56-hexadecol",OCC1OC2OC3C(O)C(O)C(OC3CO)OC4C(O)C(O)C(OC4CO)OC5C(O)C(O)C(OC5CO)OC6C(O)C(O)C(OC6CO)OC7C(O)C(O)C(OC7CO)OC8C(O)C(O)C(OC8CO)OC9C(O)C(O)C(OC9CO)OC1C(O)C2O,-0.8574691214
33,"(1S,5S)-2,6,6-trimethylbicyclo[3.1.1]hept-2-ene",CC1=CC[C@H]2C[C@@H]1C2(C)C,-4.7318576164333335
34,"(1S,5S)-6,6-dimethyl-2-methylidenebicyclo[3.1.1]heptane",CC1(C)C2CCC(=C)C1C2,-5.0724348219
35,"(1S-endo)-1,7,7-trimethylbicyclo[2.2.1]heptan-2-ol",CC1(C)[C@@H]2CC[C@]1(C)[C@H](O)C2,-2.4205583952
36,"(1Z,5Z)-cycloocta-1,5-diene",C\1C\C=C/CC\C=C1,-2.9659771733
37,"(2,2,3-trimethylcyclopent-3-en-1-yl)acetonitrile",CC1=CCC(CC#N)C1(C)C,-2.6475372328
38,"(2,2-dimethoxyethyl)benzene",COC(Cc1ccccc1)OC,-1.6296186709
39,"(2,4,6-trimethylcyclohex-3-en-1-yl)methanol",CC1CC(=CC(C)C1CO)C,-2.3711973931
40,"(2,4,6-trioxo-1,3,5-triazine-1,3,5(2H,4H,6H)-triyl)tri-2,1-ethanediyl triacrylate",C=CC(=O)OCCN1C(=O)N(CCOC(=O)C=C)C(=O)N(CCOC(=O)C=C)C1=O,-2.4514194624
41,"(2,4-dichlorophenyl)acetic acid",OC(=O)Cc1ccc(Cl)cc1Cl,-2.8729327086
42,"(2,4-dimethylcyclohex-3-en-1-yl)methyl acetate",CC1C=C(C)CCC1COC(C)=O,-3.2503985577
43,"(2,5-dioxoimidazolidin-4-yl)urea",NC(=O)NC1NC(=O)NC1=O,-1.5087824857
44,(2-aminoethyl)({2-[(2-aminoethyl)amino]ethyl})amine; tris(2-aminoethyl)amine,NCCNCCNCCN,0.5339097655
45,(2-aminoethyl)[2-({2-[(2-aminoethyl)amino]ethyl}amino)ethyl]amine; bis(2-aminoethyl)({2-[(2-aminoethyl)amino]ethyl})amine,NCCNCCNCCNCCN,0.4218033312
46,(2-methoxy-5-nitrophenyl) acetate,COc1ccc(cc1OC(C)=O)[N+]([O-])=O,-2.9466040673
47,"(2-methyl-1-oxo-1-prop-2-enoxypropan-2-yl) 2-chloro-5-[3-methyl-2,6-dioxo-4-(trifluoromethyl)pyrimidin-1-yl]benzoate",CN1C(=O)N(C(=O)C=C1C(F)(F)F)c2ccc(Cl)c(c2)C(=O)OC(C)(C)C(=O)OCC=C,-4.676528089
48,(2-methyldodecyl)(tridecyl)amine; ditridecylamine,CCCCCCCCCCCCCNCCCCCCCCCCCCC,-5.6442290737
49,(2-phenoxyethoxy)benzene,C(COc1ccccc1)Oc2ccccc2,-3.9885265275
50,"(2-phenylbutan-2-yl)benzene; (2-phenylethyl)benzene; 1,2,4,5-tetraethylbenzene; 1-methyl-2-phenylbenzene; 1-methylnaphthalene; benzene; cyclohexylbenzene; ethenylbenzene; ethylbenzene; phenylbenzene; toluene",CCc1ccccc1,-4.695598765950001
51,"(2E)-1-(2,6,6-trimethylcyclohex-1-en-1-yl)but-2-en-1-one",CC(=C)[C@@H]1C[C@@H](CC[C@@]1(C)C=C)C(C)(C)O,-3.0592783722
52,"(2E)-1-(2,6,6-trimethylcyclohex-2-en-1-yl)but-2-en-1-one",C/C=C/C(=O)C1C(=CCCC1(C)C)C,-3.1378557654
53,"(2E)-1-(2,6,6-trimethylcyclohex-3-en-1-yl)but-2-en-1-one",C/C=C/C(=O)C1C(C)C=CCC1(C)C,-3.3963665007
54,"(2E)-1-(2,6,6-trimethylcyclohexa-1,3-dien-1-yl)but-2-en-1-one",C/C=C/C(=O)C1=C(C)C=CCC1(C)C,-3.0052489876
55,(2E)-2-(phenylmethylidene)heptanal,CCCCC/C(C=O)=C/c1ccccc1,-3.0466584175
56,(2E)-2-methyl-3-phenylprop-2-enal,C/C(C=O)=C/c1ccccc1,-2.4747186153
57,(2E)-2-methylpent-2-enal,CC\C=C(/C)C=O,-1.0573697281
58,"(2E)-3,7-dimethylocta-2,6-dien-1-ol",CC(C)=CCC\C(C)=C/CO,-2.3003679887999997
59,"(2E)-3,7-dimethylocta-2,6-dien-1-ol",CC(C)=CCC\C(C)=C\CO,-2.77007156135
60,"(2E)-3,7-dimethylocta-2,6-dien-1-yl acetate",CC(=O)OC/C=C(C)/CCC=C(C)C,-3.8305001771
61,"(2E)-3,7-dimethylocta-2,6-dien-1-yl acetate",CC(=O)OC\C=C(C)/CCC=C(C)C,-3.7549608131
62,"(2E)-3,7-dimethylocta-2,6-dien-1-yl formate",CC(C)=CCC\C(C)=C\COC=O,-3.7461507617
63,"(2E)-3,7-dimethylocta-2,6-dienal",CC(C)=CCC\C(C)=C\C=O,-2.4854695661
64,"(2E)-3-(3,4,5-trimethoxyphenyl)prop-2-enoic acid",COc1cc(\C=C\C(O)=O)cc(OC)c1OC,-2.830470194
65,(2E)-3-phenylprop-2-enal,O=C/C=C/c1ccccc1,-1.9505458005999998
66,(2E)-3-phenylprop-2-enenitrile,N#C/C=C/c1ccccc1,-2.0829703418
67,(2E)-but-2-enal,C\C=C/C=O,0.4120163187
68,(2E)-but-2-ene,C\C=C\C,-1.9394650737
69,(2E)-but-2-ene; (2Z)-but-2-ene; but-1-ene,CCC=C,-2.4026718139
70,(2E)-but-2-enedioic acid,OC(=O)\C=C\C(O)=O,-1.2196294277
71,(2E)-but-2-enoic acid,C/C=C/C(O)=O,0.0381751458
72,"(2E,4E,6E,8E)-3,7-dimethyl-9-(2,6,6-trimethylcyclohex-1-en-1-yl)nona-2,4,6,8-tetraen-1-yl hexadecanoate",CCCCCCCCCCCCCCCC(=O)OC/C=C(C)/C=C/C=C(C)/C=C/C1=C(C)CCCC1(C)C,-5.7200550602
73,"(2E,6E)-3,7-dimethylnona-2,6-dienenitrile",CC/C(C)=C/CC/C(C)=C/C#N,-3.5896411422
74,"(2E,7R,11R)-3,7,11,15-tetramethylhexadec-2-en-1-ol; (2Z,7R,11R)-3,7,11,15-tetramethylhexadec-2-en-1-ol",CC(C)CCC[C@@H](C)CCC[C@@H](C)CCC/C(C)=C/CO,-4.8617411072
75,(2H)chloroform,ClC(Cl)(Cl)[2H],-1.417811305
76,"(2R)-2,4-dihydroxy-N-(3-hydroxypropyl)-3,3-dimethylbutanamide",CC(C)(CO)[C@@H](O)C(=O)NCCCO,0.3944261529
77,"(2R)-2,5,7,8-tetramethyl-2-[(4R,8R)-4,8,12-trimethyltridecyl]-3,4-dihydro-2H-1-benzopyran-6-ol",CC(C)CCC[C@@H](C)CCC[C@@H](C)CCC[C@]1(C)CCc2c(C)c(O)c(C)c(C)c2O1,-8.520248661
78,"(2R)-2,5,7,8-tetramethyl-2-[(4R,8R)-4,8,12-trimethyltridecyl]-3,4-dihydro-2H-1-benzopyran-6-ol; (2R)-2,5,8-trimethyl-2-[(4R,8R)-4,8,12-trimethyltridecyl]-3,4-dihydro-2H-1-benzopyran-6-ol; (2R)-2,7,8-trimethyl-2-[(4R,8R)-4,8,12-trimethyltridecyl]-3,4-dihydro-2H-1-benzopyran-6-ol; (2R)-2,8-dimethyl-2-[(4R,8R)-4,8,12-trimethyltridecyl]-3,4-dihydro-2H-1-benzopyran-6-ol",CC(C)CCCC(C)CCCC(C)CCCC1(C)CCc2cc(O)c(C)c(C)c2O1,-8.5058697258
79,(2R)-2-(2-chlorophenyl)-2-hydroxyacetic acid,O[C@@H](C(O)=O)c1ccccc1Cl,-0.4390279005
80,"(2R)-2-[(2R,3R,4S)-3,4-bis(octadecanoyloxy)oxolan-2-yl]-2-hydroxyethyl octadecanoate (2R)-2-[(2R,3R,4S)-3,4-dihydroxyoxolan-2-yl]-2-hydroxyethyl octadecanoate (2R)-2-hydroxy-2-[(2R,3R,4S)-3-hydroxy-4-(octadecanoyloxy)oxolan-2-yl]ethyl (9Z)-octadec-9-enoate",CCCCCCCCCCCCCCCCCC(=O)OCC(OC(=O)CCCCCCCCCCCCCCCCC)[C@H]1OC[C@@H](O)[C@@H]1OC(=O)CCCCCCCCCCCCCCCCC,-7.2849105615
81,"(2R)-2-[(2R,3R,4S)-3,4-dihydroxyoxolan-2-yl]-2-hydroxyethyl dodecanoate",CCCCCCCCCCCC(=O)OCC(O)[C@H]1OC[C@@H](O)[C@@H]1O,-5.0625368604
82,"(2R)-2-[(2R,3R,4S)-3,4-dihydroxyoxolan-2-yl]-2-hydroxyethyl hexadecanoate",CCCCCCCCCCCCCCCC(=O)OCC(O)[C@H]1OC[C@@H](O)[C@@H]1O,-6.9058735609
83,(2R)-2-[4-[5-(trifluoromethyl)pyridin-2-yl]oxyphenoxy]propanoic acid,C[C@@H](Oc1ccc(Oc2ccc(cn2)C(F)(F)F)cc1)C(O)=O,-2.10930392435
84,(2R)-2-ethylhexyl (2E)-3-(4-methoxyphenyl)prop-2-enoate (2S)-2-ethylhexyl (2E)-3-(4-methoxyphenyl)prop-2-enoate,CCCC[C@H](CC)COC(=O)/C=C/c1ccc(OC)cc1,-6.78642782545
85,(2R)-2-hydroxy-N-(2-hydroxyethyl)propanamide,CC(O)C(=O)NCCO,1.3070323786
86,(2R)-2-methyloxirane,C[C@@H]1CO1,0.8380333836
87,"(2R)-5-amino-2-(dibenzylamino)-1,6-diphenylhex-4-en-3-one",NC(Cc1ccccc1)=CC(=O)[C@@H](Cc2ccccc2)N(Cc3ccccc3)Cc4ccccc4,-7.6633437338
88,"(2R)-6-fluoro-2-[(2R)-oxiran-2-yl]-3,4-dihydro-2H-1-benzopyran; (2R)-6-fluoro-2-[(2S)-oxiran-2-yl]-3,4-dihydro-2H-1-benzopyran; (2S)-6-fluoro-2-[(2R)-oxiran-2-yl]-3,4-dihydro-2H-1-benzopyran; (2S)-6-fluoro-2-[(2S)-oxiran-2-yl]-3,4-dihydro-2H-1-benzopyran",Fc1ccc2O[C@@H](CCc2c1)[C@@H]3CO3,-3.0521011765
89,(2R)-heptan-2-yl 2-[(5-chloroquinolin-8-yl)oxy]acetate (2S)-heptan-2-yl 2-[(5-chloroquinolin-8-yl)oxy]acetate,CCCCCC(C)OC(=O)COc1ccc(Cl)c2cccnc12,-5.787747062699999
90,"(2R,3R)-2,3-dihydroxybutanedioic acid",OC(C(O)C(O)=O)C(O)=O,0.4497431261875
91,"(2R,3R,4R,5R)-hexane-1,2,3,4,5,6-hexol; (2S,3S,4S,5S,6R)-6-{[(2S,3S,4R,5S,6R)-2-carboxy-4,5,6-trihydroxyoxan-3-yl]oxy}-3,4,5-trihydroxyoxane-2-carboxylic acid; [(2S,3R,4R,5S,6S)-3-hydroxy-6-{[(2S,3R,4R,5S,6S)-3-hydroxy-6-{[(2S,3R,4R,5S,6S)-6-{[(2S,3R,4R,5S,6S)-3-hydroxy-6-{[(2S,3R,4R,5S,6R)-6-hydroxy-2-methyl-4,5-bis(sulfooxy)oxan-3-yl]oxy}-2-methyl-5-(sulfooxy)oxan-4-yl]oxy}-2-methyl-4,5-bis(sulfooxy)oxan-3-yl]oxy}-2-methyl-5-(sulfooxy)oxan-4-yl]oxy}-2-methyl-5-(sulfooxy)oxan-4-yl]oxidanesulfonic acid",C[C@@H]1O[C@@H](O[C@@H]2[C@H](C)O[C@@H](O)[C@@H](O[S](O)(=O)=O)[C@@H]2O[S](O)(=O)=O)[C@@H](O[S](O)(=O)=O)[C@H](O[C@@H]3O[C@@H](C)[C@@H](O[C@@H]4O[C@@H](C)[C@@H](O)[C@@H](O[C@@H]5O[C@@H](C)[C@@H](O)[C@@H](O[S](O)(=O)=O)[C@@H]5O[S](O)(=O)=O)[C@@H]4O[S](O)(=O)=O)[C@@H](O[S](O)(=O)=O)[C@@H]3O[S](O)(=O)=O)[C@@H]1O,-0.5892058636
92,"(2R,3R,4R,5S)-2-(hydroxymethyl)piperidine-3,4,5-triol",OC[C@H]1NC[C@H](O)[C@@H](O)[C@@H]1O,0.4027727832
93,"(2R,3R,4R,5S)-6-(methylamino)hexane-1,2,3,4,5-pentol",CNCC(O)C(O)C(O)C(O)CO,0.7094868149
94,"(2R,3R,4S,5R)-2-(6-amino-9H-purin-9-yl)-5-(hydroxymethyl)oxolane-3,4-diol",Nc1ncnc2n(cnc12)C3OC(CO)C(O)C3O,-1.8109595369
95,"(2R,3R,4S,5R)-2-(6-hydroxy-9H-purin-9-yl)-5-(hydroxymethyl)oxolane-3,4-diol",OCC1OC(C(O)C1O)n2cnc3C(=O)N=CNc23,-1.2298486435
96,"(2R,5S)-5-methyl-2-(propan-2-yl)cyclohexan-1-one",CC(C)C1CCC(C)CC1=O,-2.350645181
97,"(2S)-2-(1,3-dioxoisoindol-2-yl)pentanedioic acid",OC(=O)CC[C@H](N1C(=O)c2ccccc2C1=O)C(O)=O,-1.4463316859
98,(2S)-2-amino-3-hydroxybutanoic acid,CC(O)C(N)C(O)=O,-0.1430038628
99,(2S)-2-amino-3-hydroxypropanoic acid,NC(CO)C(O)=O,0.239830357
100,(2S)-2-amino-3-methylbutanoic acid,CC(C)C(N)C(O)=O,-0.1217916078
101,(2S)-2-amino-3-methylpentanoic acid,CC[C@H](C)[C@H](N)C(O)=O,-0.5446630063
102,(2S)-2-amino-3-phenylpropanoic acid,NC(Cc1ccccc1)C(O)=O,-0.80276172385
103,(2S)-2-amino-4-(methylsulfanyl)butanoic acid,CSCCC(N)C(O)=O,-0.4209960521
104,(2S)-2-amino-4-carbamoylbutanoic acid,N[C@@H](CCC(N)=O)C(O)=O,-0.5800934512
105,(2S)-2-amino-4-methylpentanoic acid,CC(C)CC(N)C(O)=O,-0.7561232369
106,(2S)-2-amino-6-octanamidohexanoic acid,CCCCCCCC(=O)NCCCC[C@H](N)C(O)=O,0.0575708237
107,(2S)-2-aminopentanedioic acid; 2-(bis(2-hydroxyethyl)amino)ethanol,N[C@@H](CCC(O)=O)C(O)=O,0.111437809
108,(2S)-2-aminopropanoic acid,CC(N)C(O)=O,0.2697321979
109,(2S)-2-hydroxy-3-(phenylamino)propane-1-sulfonate,O[C@@H](CNc1ccccc1)C[S]([O-])(=O)=O,0.1187844902
110,(2S)-2-{[(benzyloxy)carbonyl]amino}-2-cyclohexylacetic acid,OC(=O)[C@@H](NC(=O)OCc1ccccc1)C2CCCCC2,-3.2854336032
111,(2S)-3-methyl-2-[pentanoyl-[[4-[2-(2H-tetrazol-5-yl)phenyl]phenyl]methyl]amino]butanoic acid,CCCCC(=O)N(Cc1ccc(cc1)c2ccccc2c3n[nH]nn3)[C@@H](C(C)C)C(O)=O,-2.7359260939
112,(2S)-4-hydroxypyrrolidine-2-carboxylic acid,OC1CNC(C1)C(O)=O,0.4399221153
113,(2S)-5-amino-2-[(2-aminoacetyl)amino]-5-oxopentanoic acid,NC(=O)CC[C@H](NC(=O)C[NH3+])C([O-])=O,-0.194310278
114,(2S)-pyrrolidine-2-carboxylic acid,OC(=O)C1CCCN1,1.13872730735
115,"(2S,4R)-1-acetyl-4-hydroxypyrrolidine-2-carboxylic acid",CC(=O)N1C[C@@H](O)C[C@H]1C([O-])=O,0.3449927217
116,"(2S,4S)-4-cyclohexylpyrrolidine-2-carboxylic acid hydrochloride",Cl,0.631268384
117,"(2S,5R)-5-methyl-2-(propan-2-yl)cyclohexan-1-one",CC(C)[C@@H]1CC[C@@H](C)CC1=O,-2.5513315931333334
118,"(2S,5R)-6-amino-3,3-dimethyl-7-oxo-4-thia-1-azabicyclo[3.2.0]heptane-2-carboxylic acid",CC1(C)S[C@@H]2[C@H](N)C(=O)N2[C@H]1C(O)=O,-1.9440451079
119,(2Z)-4-butoxy-4-oxobut-2-enoic acid,CCCCOC(=O)\C=C/C(O)=O,-0.6677809794
120,(2Z)-4-{2-[2-(2-{[(2Z)-3-carboxyprop-2-enoyl]oxy}ethoxy)ethoxy]ethoxy}-4-oxobut-2-enoic acid,OC(=O)\C=C/C(=O)OCCOCCOCCOC(=O)\C=C/C(O)=O,0.1595325622
121,"(2Z)-but-2-ene-1,4-diol",OC\C=C/CO,0.8466851642
122,(2Z)-but-2-enedioic acid,OC(=O)\C=C\C(O)=O,0.6640307884333333
123,"(3,4-dihydroxyphenyl)-phenylmethanone",Oc1ccc(cc1O)C(=O)c2ccccc2,-2.9226200497
124,(3-aminopropyl)[(9Z)-octadec-9-en-1-yl]amine; bis((9Z)-octadec-9-enoic acid),CCCCCCCC\C=C/CCCCCCCCNCCCN,-8.2501920599
125,(3-aminopropyl)dimethylamine,CN(C)CCCN,0.9906298514
126,(3-chloropropyl)triethoxysilane,CCO[Si](CCCCl)(OCC)OCC,-3.3285834497
127,(3-dodecanamidopropyl)trimethylazanium methyl sulfate,CCCCCCCCCCCC(=O)NCCC[N+](C)(C)C,-0.011381165
128,(3-isocyanatopropyl)trimethoxysilane,CO[Si](CCCN=C=O)(OC)OC,-3.2569810012
129,(3-methoxy-3-methylbutyl) acetate,COC(C)(C)CCOC(C)=O,-0.4390291979
130,(3-phenoxyphenyl)methanol,OCc1cccc(Oc2ccccc2)c1,-2.78418655625
131,"(3-{3,5-bis[3-(dimethylamino)propyl]-1,3,5-triazinan-1-yl}propyl)dimethylamine",CN(C)CCCN1CN(CCCN(C)C)CN(CCCN(C)C)C1,0.1642130702
132,(3-{[3-(dimethylamino)propyl]amino}propyl)dimethylamine,CN(C)CCCNCCCN(C)C,0.51212769795
133,"(3E)-3,7-dimethylocta-1,3,6-triene",CC(C)=CC\C=C(/C)C=C,-3.9729302572
134,"(3E)-3-methyl-4-(2,6,6-trimethylcyclohex-2-en-1-yl)but-3-en-2-one",CC(=O)C(\C)=C/C1C(=CCCC1(C)C)C,-4.05139063465
135,"(3E)-4-(2,5,6,6-tetramethylcyclohex-2-en-1-yl)but-3-en-2-one",C[C@@H]1CC=C(C)[C@H](\C=C\C(C)=O)C1(C)C,-3.8026769123
136,"(3E)-4-(2,6,6-trimethylcyclohex-2-en-1-yl)but-3-en-2-one",CC(=O)/C=C/C1C(=CCCC1(C)C)C,-2.97030087275
137,(3E)-4-methyldec-3-en-5-ol,CCCCCC(O)C(/C)=C/CC,-3.4318638977
138,"(3E)-penta-1,3-diene; (3Z)-penta-1,3-diene; cyclopentene",C\C=C/C=C,-2.7318122986
139,"(3R,3aR,6S,6aR)-3,6-dimethoxy-hexahydrofuro[3,2-b]furan",COC1COC2C(COC12)OC,1.0599918174
140,"(3S)-3-hydroxy-4,4-dimethyloxolan-2-one",CC1(C)COC(=O)C1O,0.6515307225
141,"(3S,4aS,8aR)-N-tert-butyl-3,4,4a,5,6,7,8,8a-octahydro-1H-isoquinolin-2-ium-3-carboxamide",CC(C)(C)NC(=O)[C@@H]1C[C@@H]2CCCC[C@H]2C[NH2+]1,-2.1616093611
142,(3Z)-hex-3-en-1-ol,CC\C=C/CCO,-0.7504980733
143,(3Z)-hex-3-en-1-yl 2-hydroxybenzoate,CC/C=C/CCOC(=O)c1ccccc1O,-4.6439814041
144,(3Z)-hex-3-en-1-yl 2-methylpropanoate,CC\C=C/CCOC(=O)C(C)C,-3.1741873711
145,(3Z)-hex-3-en-1-yl acetate,CC\C=C/CCOC(C)=O,-2.1037447199
146,(3Z)-hex-3-en-1-yl benzoate,CC\C=C/CCOC(=O)c1ccccc1,-3.7048974167
147,(3Z)-hex-3-en-1-yl methyl carbonate,CC/C=C/CCOC(=O)OC,-3.0698306477
148,"(3aR,5aS,9aS,9bR)-3a,6,6,9a-tetramethyl-dodecahydronaphtho[2,1-b]furan",CC1(C)CCC[C@@]2(C)[C@H]1CC[C@@]3(C)OCC[C@H]23,-4.840370865700001
149,(4-anilino-1-naphthyl){bis[4-(dimethylamino)phenyl]}methanol,CN(C)c1ccc(cc1)C(O)(c2ccc(cc2)N(C)C)c3ccc(Nc4ccccc4)c5ccccc35,-6.9891355524
150,(4-formylphenyl)boronic acid,OB(O)c1ccc(C=O)cc1,-2.2673846672
151,"(4-methoxy-2,2-dimethyl-3a,4,6,6a-tetrahydrofuro[3,4-d][1,3]dioxol-6-yl)methyl 4-methylbenzenesulfonate",COC1OC(CO[S](=O)(=O)c2ccc(C)cc2)C3OC(C)(C)OC13,-4.1564425332
152,(4-methoxyphenyl)methanol,COc1ccc(CO)cc1,-1.0513188598
153,(4-methoxyphenyl)methyl acetate,COc1ccc(COC(C)=O)cc1,-2.4662274742333334
154,(4-methyl-1H-imidazol-5-yl)methanol,Cc1[nH]cnc1CO,0.2683337666
155,(4-methyl-4-phenylpent-1-en-2-yl)benzene,CC(C)(CC(=C)c1ccccc1)c2ccccc2,-6.0118424704
156,(4-nonylphenoxy)acetic acid,CCCCCCCCCc1ccc(OCC(O)=O)cc1,-3.8425967597
157,"(4-tert-butyl-2,6-dimethylphenyl)acetonitrile",Cc1cc(cc(C)c1CC#N)C(C)(C)C,-4.7018118295
158,"(4-tert-butyl-3-hydroxy-2,6-dimethylphenyl)acetonitrile",Cc1cc(c(O)c(C)c1CC#N)C(C)(C)C,-4.2579024627
159,"(4E)-3,3-dimethyl-5-(2,2,3-trimethylcyclopent-3-en-1-yl)pent-4-en-2-ol",CC(O)C(C)(C)\C=C\C1CC=C(C)C1(C)C,-5.7266183627
160,"(4E)-3-methyl-5-(2,2,3-trimethylcyclopent-3-en-1-yl)pent-4-en-2-ol",CC(O)C(C)\C=C/C1CC=C(C)C1(C)C,-3.7860287034
161,"(4E)-3-methyl-5-(2,6,6-trimethylcyclohex-1-en-1-yl)penta-1,4-dien-3-ol",CC1=C(/C=C/C(C)(O)C=C)C(C)(C)CCC1,-3.164147933
162,"(4E)-4-[(5-chloro-2-methylphenyl)hydrazinylidene]-N-[4-[[(4Z)-4-[(5-chloro-2-methylphenyl)hydrazinylidene]-3-oxonaphthalene-2-carbonyl]amino]-2,5-dimethylphenyl]-3-oxonaphthalene-2-carboxamide",Cc1ccc(Cl)cc1N\N=C2\C(=O)C(=Cc3ccccc23)C(=O)Nc4cc(C)c(NC(=O)C5=Cc6ccccc6C(=N/Nc7cc(Cl)ccc7C)/C5=O)cc4C,-7.6781962639
163,"(4E)-5,9-dimethyldeca-4,8-dienal",CC(C)=CCC\C(C)=C/CCC=O,-3.5383035446
164,(4R)-1-methyl-4-(prop-1-en-2-yl)cyclohex-1-ene,CC(=C)[C@@H]1CCC(=CC1)C,-4.36301188905
165,(4R)-4-methyl-2-propyloxan-4-yl acetate (4S)-4-methyl-2-propyloxan-4-yl acetate,CCCC1C[C@](C)(CCO1)OC(C)=O,-2.2047232328
166,(4Z)-cyclopentadec-4-en-1-one,O=C1CCCCCCCCCC\C=C/CC1,-4.8831871131
167,"(5-ethyl-1,3-dioxan-5-yl)methanol",CCC1(CO)COCOC1,0.8350942171
168,"(5-ethyl-1,3-dioxan-5-yl)methyl prop-2-enoate",CCC1(COCOC1)COC(=O)C=C,-1.3330548746
169,"(5E)-5-[(4-chlorophenyl)methylidene]-2,2-dimethylcyclopentan-1-one",CC1(C)CC\C(=C/c2ccc(Cl)cc2)C1=O,-5.6715911936