,Name,SMILES,Solubility
2885,phthalonitrile,N#Cc1ccccc1C#N,-2.4094905711333334
2886,piperidine,C1CCNCC1,1.0698153477
2887,pivalic acid,CC(C)(C)C(O)=O,-0.5635618856
2888,polychloro copper phthalocyanine,Clc1cc(Cl)c2C3N=C(N=C4N5[Cu]N6C(N=C7N=C(N=C5c8c(Cl)c(Cl)c(Cl)c(Cl)c48)c9c(Cl)c(Cl)c(Cl)c(Cl)c79)c%10c(Cl)c(Cl)c(Cl)c(Cl)c%10C6=N3)c2c1Cl,-9.039324078
2889,"pregn-4-ene-3,20-dione",CC(=O)[C@H]1CC[C@H]2[C@@H]3CCC4=CC(=O)CC[C@]4(C)[C@H]3CC[C@]12C,-4.508128022
2890,prop-1-en-2-ylbenzene,CC(=C)c1ccccc1,-2.801658305366667
2891,prop-1-ene,CC=C,-2.323056056
2892,prop-2-en-1-ol,OCC=C,-1.1305581521
2893,prop-2-en-1-yl 2-methylprop-2-enoate,CC(=C)C(=O)OCC=C,-1.76652519705
2894,prop-2-en-1-yl 2-phenoxyacetate,C=CCOC(=O)COc1ccccc1,-2.5363732086
2895,prop-2-en-1-yl 3-cyclohexylpropanoate,C=CCOC(=O)CCC1CCCCC1,-4.0624492536
2896,prop-2-en-1-yl heptanoate,CCCCCCC(=O)OCC=C,-3.5976237668
2897,prop-2-en-1-yl hexanoate,CCCCCC(=O)OCC=C,-2.692754567
2898,prop-2-enal,C=CC=O,0.5693792548
2899,prop-2-enoic acid,OC(=O)C=C,1.1422876621
2900,prop-2-yn-1-ol,OCC#C,1.2513159198
2901,propan-2-yl (9Z)-octadec-9-enoate,CCCCCCCC\C=C/CCCCCCCC(=O)OC(C)C,-6.3351890163
2902,"propan-2-yl 2,2,2-trifluoroacetate",CC(C)OC(=O)C(F)(F)F,-1.3311450656
2903,"propan-2-yl 3-[(Z)-2-{3-[(2,5-dichloro-4-{3-hydroxy-4-[(Z)-2-{2-methyl-5-[(propan-2-yloxy)carbonyl]phenyl}diazen-1-yl]naphthalene-2-amido}phenyl)carbamoyl]-2-hydroxynaphthalen-1-yl}diazen-1-yl]-4-methylbenzoate",CC(C)OC(=O)c1ccc(C)c(c1)N=Nc2c(O)c(cc3ccccc23)C(=O)Nc4cc(Cl)c(NC(=O)c5cc6ccccc6c(N=Nc7cc(ccc7C)C(=O)OC(C)C)c5O)cc4Cl,-7.0074879806
2904,propan-2-yl acetate,CC(C)OC(C)=O,-0.54138596175
2905,propan-2-yl dodecanoate,CCCCCCCCCCCC(=O)OC(C)C,-5.3845379904
2906,propan-2-yl tetradecanoate,CCCCCCCCCCCCCC(=O)OC(C)C,-6.733128222
2907,propan-2-ylbenzene,CC(C)c1ccccc1,-3.3809163975
2908,propan-2-ylcyclohexane,CC(C)C1CCCCC1,-5.3116265943
2909,propanal,CCC=O,0.7216948188
2910,propane,CCC,-2.97352605235
2911,"propane-1,2,3-triol",OCC(O)CO,1.0357686635
2912,"propane-1,2-diamine",CC(N)CN,1.1300235759
2913,"propane-1,2-diyl bisoctadec-9-enoate",CCCCCCCC\C=C/CCCCCCCC(=O)OCC(C)OC(=O)CCCCCCC\C=C/CCCCCCCC,-4.7817560925
2914,"propane-1,2-diyl dibenzoate",CC(COC(=O)c1ccccc1)OC(=O)c2ccccc2,-4.5673029377
2915,"propane-1,3-diol",OCCCO,1.1186438786
2916,"propane-2,2-diylbis(4,1-phenyleneoxyethane-2,1-diyl) diacetate",CC(=O)OCCOc1ccc(cc1)C(C)(C)c2ccc(OCCOC(C)=O)cc2,-8.0585030279
2917,"propane-2,2-diylbis(4,1-phenyleneoxypropane-3,1-diyl) bis(2-methylacrylate)",CC(=C)C(=O)OCCCOc1ccc(cc1)C(C)(C)c2ccc(OCCCOC(=O)C(C)=C)cc2,-7.4564753884
2918,propanoic acid,CCC(O)=O,1.1303048889
2919,propiophenone,CCC(=O)c1ccccc1,-2.0485000681
2920,propyl 4-hydroxybenzoate,CCCOC(=O)c1ccc(O)cc1,-2.5567920125
2921,propyl acetate,CCCOC(C)=O,-0.7231882294666666
2922,propyl propanoate,CCCOC(=O)CC,-1.3407807338
2923,pyrene,c1cc2ccc3cccc4ccc(c1)c2c34,-6.1787966156
2924,pyridin-2-amine,Nc1ccccn1,1.0263319245
2925,pyridin-3-ylmethanol,OCc1cccnc1,0.9620638041
2926,pyridine-3-carboxamide,NC(=O)c1cccnc1,0.6121583154
2927,pyridine-4-carboxylic acid,OC(=O)c1ccncc1,-1.3759670992
2928,pyrrolidin-2-one,O=C1CCCN1,-0.9299601791
2929,"pyrrolidine-2,5-dione",O=C1CCC(=O)N1,0.2962306258
2930,quinolin-8-ol,Oc1cccc2cccnc12,-2.3835811114
2931,quinoline,c1ccc2ncccc2c1,-1.3187661554666665
2932,retinol,CC(=C\CO)/C=C/C=C(C)/C=C/C1=C(C)CCCC1(C)C,-7.4570624715
2933,salicylamide,NC(=O)c1ccccc1O,-1.7694790583
2934,salicylonitrile,Oc1ccccc1C#N,-0.718947192
2935,suberonitrile,N#CCCCCCCC#N,-1.0810922867
2936,sulfamic acid,CC(C)CCCCCCO,0.0994973759
2937,tempone,CC1(C)CC(=O)CC(C)(C)N1[O],0.1034125496
2938,tert-butoxy 2-ethylhexyl carbonate,CCCCC(CC)COC(=O)OOC(C)(C)C,-4.6599585126
2939,"tert-butyl 2,2-dimethylpropaneperoxoate",CC(C)(C)OOC(=O)C(C)(C)C,-2.067961594
2940,tert-butyl 2-ethylhexaneperoxoate,CCCCC(CC)C(=O)OOC(C)(C)C,-3.6695176909
2941,tert-butyl 2-methylpropaneperoxoate,CC(C)C(=O)OOC(C)(C)C,-1.6070025668
2942,"tert-butyl 3,5,5-trimethylhexaneperoxoate",CC(CC(=O)OOC(C)(C)C)CC(C)(C)C,-4.2100961015
2943,tert-butyl benzenecarboperoxoate,CC(C)(C)OOC(=O)c1ccccc1,-2.7764329492
2944,tert-butyl hydroperoxide,CC(C)(C)OO,0.8846472263
2945,tert-butyl isobutyl ether,CC(C)COC(C)(C)C,0.8852856246
2946,tert-butyl methacrylate,CC(=C)C(=O)OC(C)(C)C,-2.4119533277
2947,tert-butyl prop-2-enoate,CC(C)(C)OC(=O)C=C,-1.9351098042333332
2948,tetrabutylstannane,CCCC[Sn](CCCC)(CCCC)CCCC,-5.576268591150001
2949,"tetrachloro-1,3-dihydro-2-benzofuran-1,3-dione",Clc1c(Cl)c(Cl)c2C(=O)OC(=O)c2c1Cl,-4.12741552566
2950,"tetrachlorocyclohexa-2,5-diene-1,4-dione",ClC1=C(Cl)C(=O)C(=C(Cl)C1=O)Cl,-5.0896861436
2951,tetrachloroethene,ClC(Cl)=C(Cl)Cl,-3.0435823172
2952,tetrachloromethane,ClC(Cl)(Cl)Cl,-2.3168537513
2953,tetracosan-1-ol,CCCCCCCCCCCCCCCCCCCCCCCCO,-5.5498158833
2954,tetradecan-1-ol,CCCCCCCCCCCCCCO,-5.582592818775
2955,tetradecyl octadec-9-enoate,CCCCCCCCCCCCCCOC(=O)CCCCCCC\C=C/CCCCCCCC,-6.9812258596
2956,tetradecyl octadecanoate,CCCCCCCCCCCCCCCCCC(=O)OCCCCCCCCCCCCCC,-8.9830504541
2957,tetradecyl prop-2-enoate,CCCCCCCCCCCCCCOC(=O)C=C,-4.428848848
2958,tetradecyl tetradecanoate,CCCCCCCCCCCCCCOC(=O)CCCCCCCCCCCCC,-7.3271074817
2959,tetraethyl silicate,CCO[Si](OCC)(OCC)OCC,-2.1455655454
2960,tetraethylazanium benzoate,CC[N+](CC)(CC)CC,0.583312842
2961,tetraethylplumbane,CC[Pb](CC)(CC)CC,-5.533012512366667
2962,tetrafluoromethane,FC(F)(F)F,-3.6703396281
2963,"tetrakis(1,2,2,6,6-pentamethylpiperidin-4-yl) butane-1,2,3,4-tetracarboxylate",CN1C(C)(C)CC(CC1(C)C)OC(=O)CC(C(CC(=O)OC2CC(C)(C)N(C)C(C)(C)C2)C(=O)OC3CC(C)(C)N(C)C(C)(C)C3)C(=O)OC4CC(C)(C)N(C)C(C)(C)C4,-4.672731896
2964,tetrakis(2-ethylbutyl) silicate,CCC(CC)CO[Si](OCC(CC)CC)(OCC(CC)CC)OCC(CC)CC,-8.1906449159
2965,tetramethylazanium 2-carboxybenzoate,C[N+](C)(C)C,0.6211099353
2966,tetramethylsilane,C[Si](C)(C)C,-3.6533405182
2967,tetraoctylstannane,CCCCCCCC[Sn](CCCCCCCC)(CCCCCCCC)CCCCCCCC,-6.7570975386
2968,tetraphenyl m-phenylene bis(phosphate),O=[P](Oc1ccccc1)(Oc2ccccc2)Oc3cccc(O[P](=O)(Oc4ccccc4)Oc5ccccc5)c3,-6.628152646849999
2969,tetratrimethylsilyl silicate,C[Si](C)(C)O[Si](O[Si](C)(C)C)(O[Si](C)(C)C)O[Si](C)(C)C,-9.4071737246
2970,thiolane,C1CCSC1,-1.1819174748
2971,thiophene,s1cccc1,-1.4462128207333331
2972,thiourea,NC(N)=S,0.194315723775
2973,thymidine,CC1=CN(C2CC(O)C(CO)O2)C(=O)NC1=O,-0.7420620877
2974,toluene,Cc1ccccc1,-2.2108395936400003
2975,toluenesulphonamide,Cc1ccccc1[S](N)(=O)=O,-1.5259868531
2976,trans-1-(1-oxohexadecyl)-4-[(1-oxohexadecyl)oxy]-L-proline,CCCCCCCCCCCCCCCC(=O)O[C@@H]1C[C@H](N(C1)C(=O)CCCCCCCCCCCCCCC)C(O)=O,-5.7838757207
2977,"trans-4-ethyl-4'-(4-propylcyclohexyl)-1,1'-biphenyl",CCCC1CCC(CC1)c2ccc(cc2)c3ccc(CC)cc3,-7.1853905644
2978,tri(propan-2-yl)silyl prop-2-enoate,CC(C)[Si](OC(=O)C=C)(C(C)C)C(C)C,-4.9437379631
2979,"tributyl benzene-1,2,4-tricarboxylate",CCCCOC(=O)c1ccc(C(=O)OCCCC)c(c1)C(=O)OCCCC,-4.807173711
2980,tributyl-2-thiourea,CCCCNC(=S)N(CCCC)CCCC,-4.1840665057
2981,tributyl[(tributylstannyl)oxy]stannane,CCCC[Sn](CCCC)(CCCC)O[Sn](CCCC)(CCCC)CCCC,-3.9228515135
2982,tributylamine,CCCCN(CCCC)CCCC,-3.0231656599
2983,trichloro(octyl)stannane,CCCCCCCC[Sn](Cl)(Cl)Cl,-6.0107803553
2984,trichloroacetic acid,OC(=O)C(Cl)(Cl)Cl,0.9007258537
2985,trichloromethane,ClC(Cl)Cl,-1.15561967885
2986,"tricyclo[2.2.2.2~1,4~]decane-2,5-diyldimethanol",OCC1CCC2C3CC(CC3CO)C12,-1.2515054899
2987,tridecan-1-ol,CCCCCCCCCCCCCO,-3.3018240282
2988,tridecanedioic acid,OC(=O)CCCCCCCCCCCC(O)=O,-4.3815125302
2989,"triethoxy(2,4,4-trimethylpentyl)silane",CCO[Si](CC(C)CC(C)(C)C)(OCC)OCC,-6.4416841407
2990,triethoxy(2-methylpropyl)silane,CCO[Si](CC(C)C)(OCC)OCC,-3.21276487585
2991,triethoxy(octyl)silane,CCCCCCCC[Si](OCC)(OCC)OCC,-6.3277407884
2992,triethyl phosphate,CCO[P](=O)(OCC)OCC,0.4385265234
2993,triethylamine,CCN(CC)CC,-0.1789532055857143
2994,trifluoroacetamide,NC(=O)C(F)(F)F,-1.4850227408
2995,trifluoroacetic acid,OC(=O)C(F)(F)F,0.9430113455
2996,trifluoromethane,FC(F)F,-1.9219346686
2997,"trimethoxy(3,3,4,4,5,5,6,6,7,7,8,8,8-tridecafluorooctyl)silane",CO[Si](CCC(F)(F)C(F)(F)C(F)(F)C(F)(F)C(F)(F)C(F)(F)F)(OC)OC,-2.8923562141
2998,trimethoxy(octyl)silane,CCCCCCCC[Si](OC)(OC)OC,-4.2461281993
2999,trimethoxy-(6-trimethoxysilylhexyl)silane,CO[Si](CCCCCC[Si](OC)(OC)OC)(OC)OC,-2.7929479843
3000,trimethoxymethane,COC(OC)OC,-1.0258013338
3001,trimethyl-3-[(1-oxo-10-undecenyl)amino]propylammonium methyl sulphate,CO[S]([O-])(=O)=O,0.0940632129
3002,trimethyl[(trimethylsilyl)oxy]silane,C[Si](C)(C)O[Si](C)(C)C,-4.909505216
3003,trimethylsilane,C[Si](C)C,-1.2150311427
3004,triphenoxy-??-phosphanethione,S=[P](Oc1ccccc1)(Oc2ccccc2)Oc3ccccc3,-7.2334479479
3005,triphenyl phosphate,O=[P](Oc1ccccc1)(Oc2ccccc2)Oc3ccccc3,-5.501568370125
3006,triphenylphosphane,c1ccc(cc1)P(c2ccccc2)c3ccccc3,-6.3329218178
3007,triphenylphosphine oxide,O=[P](c1ccccc1)(c2ccccc2)c3ccccc3,-2.8774727952
3008,"tris(1,3-dichloropropan-2-yl) phosphate",ClCC(CCl)O[P](=O)(OC(CCl)CCl)OC(CCl)CCl,-4.58299524175
3009,"tris(2,4-di-tert-butylphenyl) phosphite",CC(C)(C)c1ccc(OP(Oc2ccc(cc2C(C)(C)C)C(C)(C)C)Oc3ccc(cc3C(C)(C)C)C(C)(C)C)c(c1)C(C)(C)C,-7.48425573335
3010,"tris(2-[bis(2-hydroxyethyl)amino]ethan-1-ol); 6-({bis[(5-carboxypentyl)amino]-1,3,5-triazin-2-yl}amino)hexanoic acid",OCCN(CCO)CCO,-6.6832011337
3011,tris(2-butoxyethyl) phosphate,CCCCOCCO[P](=O)(OCCOCCCC)OCCOCCCC,-2.7785623319
3012,tris(2-chloro-1-methylethyl) phosphate,CC(CCl)O[P](=O)(OC(C)CCl)OC(C)CCl,-2.39653490325
3013,tris(2-chloroethyl) phosphate,ClCCO[P](=O)(OCCCl)OCCCl,-1.5556078593
3014,"tris(2-ethylhexyl) 2-acetoxypropane-1,2,3-tricarboxylate",CCCCC(CC)COC(=O)CC(CC(=O)OCC(CC)CCCC)(OC(C)=O)C(=O)OCC(CC)CCCC,-7.0575200469
3015,tris(2-ethylhexyl) phosphate,CCCCC(CC)CO[P](=O)(OCC(CC)CCCC)OCC(CC)CCCC,-8.04215648632
3016,tris(2-hydroxyethanaminium) citrate,[NH3+]CCO,-0.0501601164
3017,"tris(2-hydroxyethyl)-1,3,5-triazinane-2,4,6-trione",OCCN1C(=O)N(CCO)C(=O)N(CCO)C1=O,0.4920172342
3018,tris(2-hydroxyethyl)azanium acetate,CC(O)=O,0.9179117648499999
3019,tris(2-hydroxyethyl)methylammonium methyl sulphate,CO[S]([O-])(=O)=O,0.3926664196
3020,"tris(2-hydroxypropan-1-aminium) 2-hydroxypropane-1,2,3-tricarboxylate",CC(O)CN,0.8629201268
3021,tris(2-methylphenyl) phosphite,Cc1ccccc1OP(Oc2ccccc2C)Oc3ccccc3C,-7.7798430604
3022,tris(2-methylpropyl) phosphate,CC(C)CO[P](=O)(OCC(C)C)OCC(C)C,-3.00629090975
3023,tris(6-methylheptyl)amine,CC(C)CCCCCN(CCCCCC(C)C)CCCCCC(C)C,-3.72075199915
3024,"tris(oxiran-2-ylmethyl) benzene-1,2,4-tricarboxylate",O=C(OCC1CO1)c2ccc(C(=O)OCC3CO3)c(c2)C(=O)OCC4CO4,-2.7622964758
3025,"tris(prop-2-en-1-yl)-1,3,5-triazinane-2,4,6-trione",C=CCN1C(=O)N(CC=C)C(=O)N(CC=C)C1=O,-1.8526019693
3026,"tris(prop-2-en-1-yloxy)-1,3,5-triazine",C=CCOc1nc(OCC=C)nc(OCC=C)n1,-2.9197384241499997
3027,"tris(tris(2-hydroxyethyl)azanium) 2-(cyanoamino)-5-{2-[4-({4-[2-(6,8-disulfonatonaphthalen-2-yl)diazen-1-yl]-2-methoxyphenyl}carbamoyl)phenyl]diazen-1-yl}-6-hydroxypyrimidin-4-olate",COc1cc(ccc1NC(=O)c2ccc(cc2)N=Nc3c(O)nc(NC#N)nc3[O-])N=Nc4ccc5cc(cc(c5c4)[S]([O-])(=O)=O)[S]([O-])(=O)=O,-0.7832956689499999
3028,"tris[(3,5-di-tert-butyl-4-hydroxyphenyl)methyl]-1,3,5-triazinane-2,4,6-trione",CC(C)(C)c1cc(CN2C(=O)N(Cc3cc(c(O)c(c3)C(C)(C)C)C(C)(C)C)C(=O)N(Cc4cc(c(O)c(c4)C(C)(C)C)C(C)(C)C)C2=O)cc(c1O)C(C)(C)C,-6.593338688799999
3029,tris[4-(diethylamino)phenyl]methylium acetate,CCN(CC)c1ccc(cc1)[C+](c2ccc(cc2)N(CC)CC)c3ccc(cc3)N(CC)CC,-0.1395608979
3030,trixylyl phosphate,Cc1cc(C)cc(O[P](=O)(Oc2cc(C)cc(C)c2)Oc3cc(C)cc(C)c3)c1,-7.3122302643
3031,undec-10-enal,C=CCCCCCCCCC=O,-3.8931862
3032,undec-10-enoic acid,OC(=O)CCCCCCCCC=C,-3.6166463561
3033,undec-3-ene,CCCCCCC\C=C\CC,-5.1487668591
3034,undecan-1-ol,CCCCCCCCCCCO,-4.4804406676
3035,undecan-2-one,CCCCCCCCCC(C)=O,-4.2018206695
3036,undecanal,CCCCCCCCCCC=O,-3.1520232011
3037,urea,NC(N)=O,0.9872341431
3038,valeraldehyde,CCCCC=O,-0.6775026694499999
3039,valeric acid,CCCCC(O)=O,-0.54149197435
3040,vinyl 2-ethylhexanoate,CCCCC(CC)C(=O)OC=C,-4.1519109764
3041,vinyl laurate,CCCCCCCCCCCC(=O)OC=C,-5.3547996853
3042,vinyltoluene,Cc1cccc(C=C)c1,-3.1231503041
3043,xylene,Cc1cccc(C)c1,-2.8191677601
3044,xylenesulphonic acid,Cc1cccc(c1C)[S](O)(=O)=O,0.7714407693800001
3045,xylenol,Cc1cccc(C)c1O,-1.29849691404
3046,xylose,OC1COC(O)C(O)C1O,0.5778808511
3047,{2-[(2-methylprop-2-enoyl)oxy]ethoxy}phosphonic acid,CC(=C)C(=O)OCCO,-0.9602557176
3048,{2-[(2-phenylpropan-2-yl)peroxy]propan-2-yl}benzene,CC(C)(OOC(C)(C)c1ccccc1)c2ccccc2,-5.798493258
3049,{2-[2-(ethenyloxy)ethoxy]ethoxy}ethene,C=COCCOCCOC=C,-1.0530702077
3050,"{2-butyl-4-chloro-1-[(4-{2-[2-(triphenylmethyl)-2H-1,2,3,4-tetrazol-5-yl]phenyl}phenyl)methyl]-1H-imidazol-5-yl}methanol",CCCCc1nc(Cl)c(CO)n1Cc2ccc(cc2)c3ccccc3c4nnn(n4)C(c5ccccc5)(c6ccccc6)c7ccccc7,-6.4612511717
3051,{2-hydroxy-3-[(9Z)-octadec-9-enoyloxy]propoxy}boronic acid 2-hydroxy-3-{[hydroxy({2-hydroxy-3-[(9Z)-octadec-9-enoyloxy]propoxy})boranyl]oxy}propyl (9Z)-octadec-9-enoate 3-{[bis({2-hydroxy-3-[(9Z)-octadec-9-enoyloxy]propoxy})boranyl]oxy}-2-hydroxypropyl (9Z)-octadec-9-enoate,CCCCCCCC\C=C/CCCCCCCC(=O)OCC(O)COB(O)O,-5.345705158
3052,{4-[(4-methylphenyl)sulfanyl]phenyl}(phenyl)methanone,Cc1ccc(Sc2ccc(cc2)C(=O)c3ccccc3)cc1,-7.6154082599
3053,"{[(2R,3S,4R,5R)-5-(6-amino-9H-purin-9-yl)-3,4-dihydroxyoxolan-2-yl]methoxy}phosphonic acid",Nc1ncnc2n(cnc12)C3OC(CO[P](O)(O)=O)C(O)C3O,-1.9953026194