,Name,SMILES,Solubility
380,"1,3-divinylimidazolidin-2-one",C=CN1CCN(C=C)C1=O,-1.1558864442
381,"1,3-thiazol-5-ylmethanol",OCc1scnc1,0.5257355357
382,"1,3-xylene",Cc1cccc(C)c1,-2.811543236366667
383,"1,3-xylene; 1,4-diethylcyclohexane; 8,15-diethylhexacosane; anthracene; naphthalene; tetradecahydroanthracene; triacontane",CCCCCCCCCCCCCCCCCCCCCCCCCCCCCC,-6.00231043205
384,"1,3-xylene; cyclopentane; ethylbenzene; pentane; toluene",CCCCC,-3.1829436849666664
385,"1,4,7,10-tetraazacyclododecane",C1CNCCNCCNCCN1,-0.0375676926
386,"1,4,7,10-tetrazacyclododecane",C1CNCCNCCNCCN1,-0.0342940541
387,"1,4-Bis(4-phenoxybenzoyl)benzene",O=C(c1ccc(Oc2ccccc2)cc1)c3ccc(cc3)C(=O)c4ccc(Oc5ccccc5)cc4,-7.973611776
388,"1,4-bis(16-methylheptadecyl) 2-hydroxybutanedioate",CC(C)CCCCCCCCCCCCCCCOC(=O)CC(O)C(=O)OCCCCCCCCCCCCCCCC(C)C,-7.9926275988
389,"1,4-bis(2-ethylhexyl) (2E)-but-2-enedioate",CCCCC(CC)COC(=O)\C=C\C(=O)OCC(CC)CCCC,-5.4565752567
390,"1,4-bis(2-ethylhexyl) (2Z)-but-2-enedioate",CCCCC(CC)COC(=O)\C=C/C(=O)OCC(CC)CCCC,-6.9758197173
391,"1,4-bis(2-ethylhexyl) benzene-1,4-dicarboxylate",CCCCC(CC)COC(=O)c1ccc(cc1)C(=O)OCC(CC)CCCC,-8.9896322186
392,"1,4-bis(2-ethylhexyl) butanedioate",CCCCC(CC)COC(=O)CCC(=O)OCC(CC)CCCC,-7.835715931
393,"1,4-bis(2-ethylhexyl) cyclohexane-1,4-dicarboxylate",CCCCC(CC)COC(=O)C1CCC(CC1)C(=O)OCC(CC)CCCC,-6.9262679923
394,"1,4-bis(butylamino)-9,10-dihydroanthracene-9,10-dione",CCCCNc1ccc(NCCCC)c2C(=O)c3ccccc3C(=O)c12,-7.9318570783
395,"1,4-bis(iodomethyl)cyclohexane",ICC1CCC(CI)CC1,-5.7481975718
396,"1,4-bis(oxiran-2-ylmethyl) benzene-1,4-dicarboxylate",O=C(OCC1CO1)c2ccc(cc2)C(=O)OCC3CO3,-3.5579600556
397,"1,4-bis(propan-2-yl)benzene",CC(C)c1ccc(cc1)C(C)C,-6.6027992709
398,"1,4-bis(vinyloxy)butane",C=COCCCCOC=C,-2.5486728099000002
399,"1,4-bis({3-[2-(2-hydroxyethoxy)ethoxy]propyl}amino)-9,10-dihydroanthracene-9,10-dione",OCCOCCOCCCNc1ccc(NCCCOCCOCCO)c2C(=O)c3ccccc3C(=O)c12,0.16620335865
400,"1,4-bis[(2,4,6-trimethylphenyl)amino]-9,10-dihydroanthracene-9,10-dione",Cc1cc(C)c(Nc2ccc(Nc3c(C)cc(C)cc3C)c4C(=O)c5ccccc5C(=O)c24)c(C)c1,-7.8250730454
401,"1,4-bis[(2,6-diethyl-4-methylphenyl)amino]-9,10-dihydroanthracene-9,10-dione",CCc1cc(C)cc(CC)c1Nc2ccc(Nc3c(CC)cc(C)cc3CC)c4C(=O)c5ccccc5C(=O)c24,-7.423828912
402,"1,4-bis[(2-ethyl-6-methylphenyl)amino]-9,10-dihydroanthracene-9,10-dione",CCc1cccc(C)c1Nc2ccc(Nc3c(C)cccc3CC)c4C(=O)c5ccccc5C(=O)c24,-7.3753013985
403,"1,4-bis[(E)-prop-1-enoxy]cyclohexane 1,4-di(prop-1-enoxy)cyclohexane",C\C=C\OC1CCC(CC1)O\C=C\C,-3.92710379245
404,"1,4-diamino-2,3-diphenoxy-9,10-dihydroanthracene-9,10-dione",Nc1c(Oc2ccccc2)c(Oc3ccccc3)c(N)c4C(=O)c5ccccc5C(=O)c14,-8.2725778338
405,"1,4-diazabicyclo[2.2.2]octan-2-ylmethanol",OCC1CN2CCN1CC2,0.8470942954
406,"1,4-dibromo-2-ethenylbenzene",Brc1ccc(Br)c(C=C)c1,-4.5787304077
407,"1,4-dibromobutane",BrCCCCBr,-2.7902167817
408,"1,4-dibutyl (2Z)-but-2-enedioate",CCCCOC(=O)\C=C/C(=O)OCCCC,-3.1280341619
409,"1,4-dibutyl benzene-1,4-dicarboxylate",CCCCOC(=O)c1ccc(cc1)C(=O)OCCCC,-6.698789508660001
410,"1,4-dichloro-2-nitrobenzene",[O-][N+](=O)c1cc(Cl)ccc1Cl,-3.3642253983
411,"1,4-dichlorobenzene",Clc1ccc(Cl)cc1,-3.34737115775
412,"1,4-diethyl 2-{[4-({4-[(1,4-diethoxy-1,4-dioxobutan-2-yl)amino]-3-methylcyclohexyl}methyl)-2-methylcyclohexyl]amino}butanedioate",CCOC(=O)CC(NC1CCC(CC2CCC(NC(CC(=O)OCC)C(=O)OCC)C(C)C2)CC1C)C(=O)OCC,-5.0665338896
413,"1,4-diethyl 2-{[4-({4-[(1,4-diethoxy-1,4-dioxobutan-2-yl)amino]cyclohexyl}methyl)cyclohexyl]amino}butanedioate",CCOC(=O)CC(NC1CCC(CC1)CC2CCC(CC2)NC(CC(=O)OCC)C(=O)OCC)C(=O)OCC,-3.7440777388
414,"1,4-diethylbenzene",CCc1ccc(CC)cc1,-3.8973747844
415,"1,4-dihydroxy-9,10-dihydroanthracene-9,10-dione",Oc1ccc(O)c2C(=O)c3ccccc3C(=O)c12,-6.2709758824428565
416,"1,4-dimethoxy-2-nitrobenzene",COc1ccc(OC)c(c1)[N+]([O-])=O,-3.0173250803
417,"1,4-dimethoxybenzene",COc1ccc(OC)cc1,-2.26794972745
418,"1,4-dimethyl (2Z)-but-2-enedioate",COC(=O)\C=C/C(=O)OC,-0.2986436565
419,"1,4-dimethyl 2-[(E)-2-{2-oxo-1-[(2-oxo-2,3-dihydro-1H-1,3-benzodiazol-5-yl)carbamoyl]propyl}diazen-1-yl]benzene-1,4-dicarboxylate",COC(=O)c1ccc(C(=O)OC)c(c1)N=NC(C(C)=O)C(=O)Nc2ccc3NC(=O)Nc3c2,-6.3140693713
420,"1,4-dimethyl 2-aminobenzene-1,4-dicarboxylate",COC(=O)c1ccc(c(N)c1)C(=O)OC,-3.7185037648
421,"1,4-dimethyl benzene-1,4-dicarboxylate",COC(=O)c1ccc(cc1)C(=O)OC,-3.6961136093
422,"1,4-dimethyl butanedioate",COC(=O)CCC(=O)OC,-0.05644670585
423,"1,4-dimethyl cyclohexane-1,4-dicarboxylate",COC(=O)C1CCC(CC1)C(=O)OC,-1.3871946661
424,"1,4-dimethylpiperazine",CN1CCN(C)CC1,0.9423643206
425,"1,4-dioxacycloheptadecane-5,17-dione",O=C1CCCCCCCCCCCC(=O)OCCO1,-4.3245933746
426,"1,4-dioxacyclohexadecane-5,16-dione",O=C1CCCCCCCCCCC(=O)OCCO1,-3.533758505
427,"1,4-dioxane",C1COCCO1,1.0549945152
428,"1,4-dithiane-2,5-diol",OC1CSC(O)CS1,-1.4690382322
429,"1,4-xylene",Cc1ccc(C)cc1,-2.811543236366667
430,"1,4-xylene 4-(methoxycarbonyl)benzoic acid 4-methylbenzoic acid benzoic acid 1,2,4-trimethyl benzene-1,2,4-tricarboxylate 1,2-dimethyl 4-methylbenzene-1,2-dicarboxylate 1,2-dimethyl benzene-1,2-dicarboxylate 1,3-dimethyl benzene-1,3-dicarboxylate 1,4-dimethyl 2-[4-(methoxycarbonyl)phenyl]benzene-1,4-dicarboxylate 1,4-dimethyl benzene-1,4-dicarboxylate 1-[4-(methoxycarbonyl)phenyl]methyl 4-methyl benzene-1,4-dicarboxylate 1-methyl 4-(4-methylphenyl)methyl benzene-1,4-dicarboxylate 2,6-dimethyl 9-oxo-9H-fluorene-2,6-dicarboxylate [4-(methoxycarbonyl)phenyl]methyl 4-methylbenzoate methyl 1-methyl-6-oxo-6H-benzo[c]chromene-4-carboxylate methyl 2-[4-(methoxycarbonyl)phenyl]-4-methylbenzoate methyl 2-[4-(methoxycarbonyl)phenyl]benzoate methyl 3-[4-(methoxycarbonyl)phenyl]benzoate methyl 4-(dimethoxymethyl)benzoate methyl 4-(hydroxymethyl)benzoate methyl 4-[4-(methoxycarbonyl)phenyl]benzoate methyl 4-formylbenzoate methyl 4-methylbenzoate methyl benzoate",COC(OC)c1ccc(cc1)C(=O)OC,-6.7316777728
431,"1,4:3,6-dianhydro-D-glucitol",O[C@@H]1CO[C@@H]2[C@@H](O)CO[C@H]12,1.1774501829
432,"1,5-dimethyl pentanedioate",COC(=O)CCCC(=O)OC,-0.4045491049
433,"1,5-dimethyl-1-vinylhex-4-en-1-yl 2-methylpropanoate",CC(C)C(=O)OC(C)(CCC=C(C)C)C=C,-4.8105849842
434,"1,5-dimethyl-1-vinylhex-4-en-1-yl formate",CC(C)=CCCC(C)(OC=O)C=C,-4.0405904263
435,"1,5-dimethyl-1-vinylhex-4-en-1-yl propionate",CCC(=O)OC(C)(CCC=C(C)C)C=C,-4.3823578934
436,"1,6-bis(2-ethylhexyl) hexanedioate",CCCCC(CC)COC(=O)CCCCC(=O)OCC(CC)CCCC,-7.316299956150001
437,"1,6-bis(2-methylheptyl) hexanedioate",CC(C)CCCCCOC(=O)CCCCC(=O)OCCCCCC(C)C,-6.869904941
438,"1,6-bis(2-methylnonyl) hexanedioate",CC(C)CCCCCCCOC(=O)CCCCC(=O)OCCCCCCCC(C)C,-6.6301043221
439,"1,6-bis(7-methyloctyl) hexanedioate",CC(C)CCCCCCOC(=O)CCCCC(=O)OCCCCCCC(C)C,-6.1005678007
440,"1,6-bis(propan-2-yl) hexanedioate",CC(C)OC(=O)CCCCC(=O)OC(C)C,-3.1070289759
441,"1,6-bis[2-(2-butoxyethoxy)ethyl] hexanedioate",CCCCOCCOCCOC(=O)CCCCC(=O)OCCOCCOCCCC,-2.8821848864
442,"1,6-dibutyl hexanedioate",CCCCOC(=O)CCCCC(=O)OCCCC,-3.8681538696
443,"1,6-dichlorohexane",ClCCCCCCCl,-3.4346473299
444,"1,6-dimethyl hexanedioate",COC(=O)CCCCC(=O)OC,-1.0824811154666667
445,"1,6-dioxacycloheptadecan-7-one",O=C1CCCCCCCCCCOCCCCO1,-4.0179591997
446,"1,7,7-trimethylbicyclo[2.2.1]hept-2-yl acetate",CC(=O)O[C@@H]1C[C@@H]2CC[C@@]1(C)C2(C)C,-3.4963238418
447,"1,7,7-trimethylbicyclo[2.2.1]heptan-2-one",CC1(C)C2CCC1(C)C(=O)C2,-1.9957615899
448,"1,7-dioxacycloheptadecan-8-one",O=C1CCCCCCCCCOCCCCCO1,-3.8838494997
449,"1,8-bis(phenylsulfanyl)-9,10-dihydroanthracene-9,10-dione",O=C1c2cccc(Sc3ccccc3)c2C(=O)c4c(Sc5ccccc5)cccc14,-5.5173350431
450,"1,8-dihydroxy-4-nitro-5-(phenylamino)-9,10-dihydroanthracene-9,10-dione",Oc1ccc(Nc2ccccc2)c3C(=O)c4c(c(O)ccc4[N+]([O-])=O)C(=O)c13,-8.6461429905
451,1-(1-benzofuran-2-yl)ethan-1-one,CC(=O)c1oc2ccccc2c1,-2.5484883965
452,1-(1-butoxypropan-2-yloxy)propan-2-ol,CCCCOCC(C)OCC(C)O,-0.6530596225
453,"1-(2,3,8,8-tetramethyl-1,3,4,5,6,7-hexahydronaphthalen-2-yl)ethanone",CC1CC2=C(CC1(C)C(C)=O)C(C)(C)CCC2,-4.9417913147
454,"1-(2,4-dichlorophenyl)-2-(1H-imidazol-1-yl)ethan-1-ol",OC(Cn1ccnc1)c2ccc(Cl)cc2Cl,-2.7273022444
455,"1-(2,4-dihydroxy-6-{[(2S,3R,4S,5S,6R)-3,4,5-trihydroxy-6-(hydroxymethyl)oxan-2-yl]oxy}phenyl)-3-(4-hydroxyphenyl)propan-1-one",OC[C@H]1O[C@@H](Oc2cc(O)cc(O)c2C(=O)CCc3ccc(O)cc3)[C@H](O)[C@@H](O)[C@@H]1O,-2.639897679
456,"1-(2,6,6-trimethylcyclohex-1-en-1-yl)pent-1-en-3-one",CCC(=O)/C=C/C1=C(C)CCCC1(C)C,-4.60822921965
457,"1-(2,6,6-trimethylcyclohex-2-en-1-yl)pentan-3-one; prop-2-yn-1-ol",CCC(=O)CCC1C(=CCCC1(C)C)C,-4.3219056885
458,"1-(2,6-dimethylphenoxy)acetone",CC(=O)COc1c(C)cccc1C,-1.9185447839
459,1-(2-aminoethyl)imidazolidin-2-one,NCCN1CCNC1=O,0.6335459397
460,1-(2-benzenesulfonamidophenyl)-3-phenylurea,O=C(Nc1ccccc1)Nc2ccccc2N[S](=O)(=O)c3ccccc3,-4.5784028785
461,1-(2-ethylbutyl)cyclohexane-1-carbonitrile,CCC(CC)CC1(CCCCC1)C#N,-6.5873382321
462,1-(2-ethylbutyl)cyclohexane-1-carboxylic acid,CCC(CC)CC1(CCCCC1)C(O)=O,-4.281694517
463,1-(2-furyl)methanamine,NCc1occc1,1.0127047417
464,"1-(2-hydroxyethyl)-2,2,6,6-tetramethylpiperidin-4-ol",CC1(C)CC(O)CC(C)(C)N1CCO,-0.8598205529
465,1-(2-hydroxyethyl)imidazolidin-2-one,OCCN1CCNC1=O,0.8776773261
466,1-(2-naphthyl)ethanone,CC(=O)c1ccc2ccccc2c1,-2.7964187192
467,"1-(3,3-dimethylcyclohexyl)pent-4-en-1-one",CC1(C)CCCC(C1)C(=O)CCC=C,-4.7793105096
468,"1-(3,4-dichlorophenyl)-3,3-dimethylurea",CN(C)C(=O)Nc1ccc(Cl)c(Cl)c1,-3.9086600987
469,1-(3-aminophenyl)ethanone,CC(=O)c1cccc(N)c1,-0.8968566442
470,1-(3-chlorophenyl)propan-1-one,CCC(=O)c1cccc(Cl)c1,-1.8467055699
471,"1-(3-chloropropyl)-2,3-dihydro-1H-1,3-benzodiazol-2-one",ClCCCN1C(=O)Nc2ccccc12,-3.0203942687
472,1-(3-methoxyphenyl)ethan-1-one,COc1cccc(c1)C(C)=O,-1.7969621877000002
473,1-(4-Pentylcyclohexyl)-4-propylbenzene,CCCCCC1CCC(CC1)c2ccc(CCC)cc2,-6.7725704235
474,"1-(4-chlorophenoxy)-1-(1H-imidazol-1-yl)-3,3-dimethylbutan-2-one",CC(C)(C)C(=O)C(Oc1ccc(Cl)cc1)n2ccnc2,-3.7030926455
475,1-(4-chlorophenyl)-2-nitrobenzene,[O-][N+](=O)c1ccccc1c2ccc(Cl)cc2,-4.9372094561
476,"1-(4-chlorophenyl)-3-(3,4-dichlorophenyl)urea",Clc1ccc(NC(=O)Nc2ccc(Cl)c(Cl)c2)cc1,-6.9784227624
477,1-(4-hydroxyphenyl)ethan-1-one,CC(=O)c1ccc(O)cc1,-1.1362000484
478,1-(4-methoxyphenyl)-2-[(3-methoxyphenyl)sulfanyl]ethan-1-one,COc1ccc(cc1)C(=O)CSc2cccc(OC)c2,-5.2950533665599995
479,1-(4-methoxyphenyl)-4-(4-nitrophenyl)piperazine,COc1ccc(cc1)N2CCN(CC2)c3ccc(cc3)[N+]([O-])=O,-6.9290130346
480,"1-(4-tert-butylphenyl)-3-(4-methoxyphenyl)propane-1,3-dione",COc1ccc(cc1)C(=O)CC(=O)c2ccc(cc2)C(C)(C)C,-7.0605481543
481,1-(4-{2-[4-(2-hydroxypropoxy)phenyl]propan-2-yl}phenoxy)propan-2-ol,CC(O)COc1ccc(cc1)C(C)(C)c2ccc(OCC(C)O)cc2,-3.499700952
482,"1-(4-{[4-(2,5-dioxo-2,5-dihydro-1H-pyrrol-1-yl)phenyl]methyl}phenyl)-2,5-dihydro-1H-pyrrole-2,5-dione",O=C1C=CC(=O)N1c2ccc(Cc3ccc(cc3)N4C(=O)C=CC4=O)cc2,-5.9980085438
483,"1-(5,5-dimethylcyclohex-1-en-1-yl)pent-4-en-1-one",CC1(C)CCC=C(C1)C(=O)CCC=C,-3.5342474855
484,1-(6-methyl-2-oxohexahydropyrimidin-4-yl)urea,CC1CC(NC(N)=O)NC(=O)N1,-1.5314234319
485,"1-(6-tert-butyl-1,1-dimethyl-2,3-dihydro-1H-inden-4-yl)ethan-1-one",CC(=O)c1cc(cc2c1CCC2(C)C)C(C)(C)C,-4.8708662082
486,1-(acetyloxy)but-3-en-2-yl acetate,CC(=O)OC[C@@H](OC(C)=O)C=C,-0.8176814122
487,"1-(butan-2-yl)-4-{4-[4-(4-hydroxyphenyl)piperazin-1-yl]phenyl}-4,5-dihydro-1H-1,2,4-triazol-5-one",CCC(C)N1N=CN(C1=O)c2ccc(cc2)N3CCN(CC3)c4ccc(O)cc4,-4.8285219564
488,1-(chloromethyl)-2-methylbenzene,Cc1ccccc1CCl,-3.0813269237
489,1-(chloromethyl)-4-[4-(chloromethyl)phenyl]benzene,ClCc1ccc(cc1)c2ccc(CCl)cc2,-10.098913562
490,1-(diethylamino)propan-2-ol,CCN(CC)CC(C)O,0.1021113643
491,1-(ethenyloxy)butane,CCCCOC=C,-2.1003718285
492,1-(hexyloxy)hexane,CCCCCCOCCCCCC,-4.2703037605
493,1-(methoxymethyl)-4-[4-(methoxymethyl)phenyl]benzene,COCc1ccc(cc1)c2ccc(COC)cc2,-4.0023686333
494,"1-(methylamino)-9,10-dihydroanthracene-9,10-dione",CNc1cccc2C(=O)c3ccccc3C(=O)c12,-6.33382818
495,1-(morpholin-4-yl)prop-2-en-1-one,C=CC(=O)N1CCOCC1,0.8502575853
496,1-(naphthalen-1-yl)ethan-1-one,CC(=O)c1cccc2ccccc12,-2.8846346488
497,1-(octadecyloxy)octadecane,CCCCCCCCCCCCCCCCCCOCCCCCCCCCCCCCCCCCC,-7.0195208893
498,1-(octyloxy)octane,CCCCCCCCOCCCCCCCC,-6.3846168146
499,1-(propan-2-yl)naphthalene; 2-(propan-2-yl)naphthalene,CC(C)c1cccc2ccccc12,-4.7823935551
500,1-(vinyloxy)octadecane,CCCCCCCCCCCCCCCCCCOC=C,-7.58776276805
501,"1-({4-[(9,10-dioxo-9,10-dihydroanthracen-1-yl)amino]-6-phenyl-1,3,5-triazin-2-yl}amino)-9,10-dihydroanthracene-9,10-dione",O=C1c2ccccc2C(=O)c3c(Nc4nc(Nc5cccc6C(=O)c7ccccc7C(=O)c56)nc(n4)c8ccccc8)cccc13,-7.77786597
502,1-({[(piperidine-1-carbothioyldisulfanyl)disulfanyl]disulfanyl}methanethioyl)piperidine,S=C(SSSSSSC(=S)N1CCCCC1)N2CCCCC2,-7.6317322062
503,1-Isopropyl-2-methoxy-4-methylcyclohexane,COC1CC(C)CCC1C(C)C,-3.9301744515
504,1-Methyl-4-propan-2-ylcyclohexene,CC(C)C1CCC(=CC1)C,-5.4952554359
505,"1-N,1-N-bis(2-hydroxyethyl)benzene-1,4-bis(aminium) sulfate",Nc1ccc(cc1)N(CCO)CCO,-0.2184130526
506,"1-N,4-N-bis(5-methylhexan-2-yl)benzene-1,4-diamine",CC(C)CCC(C)Nc1ccc(NC(C)CCC(C)C)cc1,-4.868266516649999
507,"1-N,4-N-diphenylbenzene-1,4-diamine",N(c1ccccc1)c2ccc(Nc3ccccc3)cc2,-6.2394496415
508,"1-N-(2-hydroxyethyl)-4-methoxybenzene-1,3-bis(aminium) sulfate",COc1ccc([NH2+]CCO)cc1[NH3+],-0.5343422948
509,"1-N-phenylbenzene-1,4-diamine",Nc1ccc(Nc2ccccc2)cc1,-2.5647745555999997
510,1-[(1-propoxypropan-2-yl)oxy]propan-2-ol,CCCOCC(C)OCC(C)O,-0.0700526508
511,"1-[(1E,5Z,9Z)-2,5,10-trimethylcyclododeca-1,5,9-trien-1-yl]ethan-1-one; 1-[(1R)-2,5,10-trimethylcyclododeca-2,5,9-trien-1-yl]ethan-1-one; 1-[(1R)-4,9-dimethyl-12-methylidenecyclododeca-4,8-dien-1-yl]ethan-1-one; 1-[(1S)-2,5,10-trimethylcyclododeca-2,5,9-trien-1-yl]ethan-1-one; 1-[(1S)-4,9-dimethyl-12-methylidenecyclododeca-4,8-dien-1-yl]ethan-1-one",CC(=O)[C@H]1CCC(=CCCC=C(C)CCC1=C)C,-5.4491260218
512,1-[(2-hydroxypropyl)(4-methylphenyl)amino]propan-2-ol,CC(O)CN(CC(C)O)c1ccc(C)cc1,-1.5038218002
513,1-[(2-hydroxypropyl)amino]propan-2-ol,CC(O)CNCC(C)O,0.7227182016999999
514,1-[(2-tert-butylcyclohexyl)oxy]butan-2-ol,CCC(O)COC1CCCCC1C(C)(C)C,-3.698734262
515,"1-[(9,9-dimethyldecyl)sulfanyl]propan-2-ol",CC(O)CSCCCCCCCCC(C)(C)C,-4.7309406924
516,"1-[(E)-2-(2,4-dimethylphenyl)diazen-1-yl]naphthalen-2-ol",Cc1ccc(N\N=C2/C(=O)C=Cc3ccccc23)c(C)c1,-6.7054442976
517,1-[(E)-2-(2-chloro-4-nitrophenyl)diazen-1-yl]naphthalen-2-ol,[O-][N+](=O)c1ccc(N\N=C2/C(=O)C=Cc3ccccc23)c(Cl)c1,-7.9969982826
518,1-[(E)-2-(2-methoxyphenyl)diazen-1-yl]naphthalen-2-ol,COc1ccccc1N\N=C2/C(=O)C=Cc3ccccc23,-8.9260164319
519,1-[(E)-2-(4-methoxy-2-nitrophenyl)diazen-1-yl]naphthalen-2-ol,COc1ccc(N\N=C2/C(=O)C=Cc3ccccc23)c(c1)[N+]([O-])=O,-7.9911025111
520,1-[(E)-2-(4-methyl-2-nitrophenyl)diazen-1-yl]naphthalen-2-ol,Cc1ccc(N\N=C2/C(=O)C=Cc3ccccc23)c(c1)[N+]([O-])=O,-7.9690613395
521,1-[({[(tetradecyloxy)carbonyl]peroxy}carbonyl)oxy]tetradecane,CCCCCCCCCCCCCCOC(=O)OOC(=O)OCCCCCCCCCCCCCC,-4.33529694315
522,1-[2-(2-butoxy-1-methylethoxy)-1-methylethoxy]propan-1-ol,CCOCCCC(C)OCCOCC(C)CO,-0.790860844
523,1-[2-(2-butoxyethoxy)ethoxy]butane,CCCCOCCOCCOCCCC,-1.7493348967
524,1-[2-(benzoyloxy)propoxy]propan-2-yl benzoate 1-{[1-(benzoyloxy)propan-2-yl]oxy}propan-2-yl benzoate 2-{[1-(benzoyloxy)propan-2-yl]oxy}propyl benzoate,O=C(OCCCOCCCOC(=O)c1ccccc1)c2ccccc2,-4.595502564
525,1-[2-[[4-[(2-chloro-4-nitrophenyl)azo]phenyl]ethylamino]ethyl]pyridinium acetate,CCN(CC[n+]1ccccc1)c2ccc(cc2)N=Nc3ccc(cc3Cl)[N+]([O-])=O,-1.5218900849
526,1-[2-dimethylamino-1-(4-methoxyphenyl)ethyl]cyclohexan-1-ol,COc1ccc(cc1)C(CN(C)C)C2(O)CCCCC2,-0.06794785040000001
527,1-[3-(2-oxoazepane-1-carbonyl)benzoyl]azepan-2-one,O=C1CCCCCN1C(=O)c2cccc(c2)C(=O)N3CCCCCC3=O,-3.9583461947
528,1-[3-(trifluoromethyl)phenyl]ethan-1-one,CC(=O)c1cccc(c1)C(F)(F)F,-2.4821079167
529,1-[4-(4-hydroxyphenyl)piperazin-1-yl]ethan-1-one,CC(=O)N1CCN(CC1)c2ccc(O)cc2,-1.817914488
530,1-[bis(2-hydroxypropyl)amino]propan-2-ol,CC(O)CN(CC(C)O)CC(C)O,0.5273749199
531,1-[bis(4-fluorophenyl)methyl]piperazine,Fc1ccc(cc1)C([NH+]2CC[NH2+]CC2)c3ccc(F)cc3,-2.8786010762
532,"1-amino-4-(4-amino-9,10-dioxo-9,10-dihydroanthracen-1-yl)-9,10-dihydroanthracene-9,10-dione",Nc1ccc(c2ccc(N)c3C(=O)c4ccccc4C(=O)c23)c5C(=O)c6ccccc6C(=O)c15,-6.771794778
533,"1-amino-4-(ethylamino)-9,10-dioxo-9,10-dihydroanthracene-2-carbonitrile",CCNc1cc(C#N)c(N)c2C(=O)c3ccccc3C(=O)c12,-7.6382805905
534,"1-amino-4-hydroxy-2-phenoxy-9,10-dihydroanthracene-9,10-dione",Nc1c(Oc2ccccc2)cc(O)c3C(=O)c4ccccc4C(=O)c13,-4.2192268325
535,1-aminoguanidine; carbonic acid,NN=C(N)N,-1.5842773219666668
536,1-benzoylcyclohexan-1-ol,OC1(CCCCC1)C(=O)c2ccccc2,-2.6647801935
537,"1-benzyl 2-butyl benzene-1,2-dicarboxylate",CCCCOC(=O)c1ccccc1C(=O)OCc2ccccc2,-5.05466167175
538,1-benzyl-2-methylbenzene; 1-benzyl-3-methylbenzene; 1-benzyl-4-methylbenzene,Cc1ccccc1Cc2ccccc2,-4.6925039386
539,1-benzyl-N-phenylpiperidin-4-amine,C1CN(CCC1Nc2ccccc2)Cc3ccccc3,-3.9542229462
540,1-benzylpiperidin-4-one,O=C1CCN(CC1)Cc2ccccc2,-1.0169828584
541,"1-bromo-1,1,2,2,3,3,4,4,5,5,6,6,7,7,8,8,8-heptadecafluorooctane",FC(F)(F)C(F)(F)C(F)(F)C(F)(F)C(F)(F)C(F)(F)C(F)(F)C(F)(F)Br,-7.3970339946
542,1-bromo-3-chloropropane,ClCCCBr,-2.211291501033333
543,1-bromobutane,CCCCBr,-2.1977641867
544,1-bromopropane,CCCBr,-1.71149064212
545,1-butoxypropan-2-ol,CCCCOCC(C)O,-0.4052379668
546,"1-butyl-6-hydroxy-4-methyl-2-oxo-1,2-dihydropyridine-3-carbonitrile",CCCCN1C(=O)C=C(C)C(=C1O)C#N,-2.2729907436
547,1-carbamimidamido-N-(2-methylphenyl)methanimidamide,Cc1ccccc1N=C(N)N=C(N)N,-1.8422414993
548,"1-chloro-1,1-difluoroethane",CC(F)(F)Cl,-1.78970363625
549,"1-chloro-1,2,2-trifluoroethene",FC(F)=C(F)Cl,-1.7869760654
550,"1-chloro-2,5-dimethoxy-4-nitrobenzene",COc1cc(c(OC)cc1Cl)[N+]([O-])=O,-3.1793123653
551,1-chloro-2-(2-chloroethoxy)ethane,ClCCOCCCl,-1.09699557872
552,1-chloro-2-(chloromethyl)benzene,ClCc1ccccc1Cl,-3.2069094899
553,1-chloro-2-(trichloromethyl)benzene,Clc1ccccc1C(Cl)(Cl)Cl,-5.0439330965
554,1-chloro-2-[(2-chloroethoxy)methoxy]ethane,ClCCOCOCCCl,-1.2981258416
555,1-chloro-2-methyl-3-nitrobenzene,Cc1c(Cl)cccc1[N+]([O-])=O,-3.2706864295
556,1-chloro-2-methylbenzene,Cc1ccccc1Cl,-2.4302878188
557,1-chloro-2-nitro-4-(trifluoromethyl)benzene,[O-][N+](=O)c1cc(ccc1Cl)C(F)(F)F,-2.5337046723
558,1-chloro-2-nitrobenzene,[O-][N+](=O)c1ccccc1Cl,-2.5304009279875
559,1-chloro-3-(trifluoromethyl)benzene,FC(F)(F)c1cccc(Cl)c1,-3.4115138849
560,1-chloro-3-nitrobenzene,[O-][N+](=O)c1cccc(Cl)c1,-2.6838213195
561,1-chloro-4-(3-chlorophenoxy)benzene,Clc1ccc(Oc2cccc(Cl)c2)cc1,-5.46354380925
562,1-chloro-4-(4-chlorobenzenesulfonyl)benzene,Clc1ccc(cc1)[S](=O)(=O)c2ccc(Cl)cc2,-5.5236360799
563,1-chloro-4-(trifluoromethyl)benzene,FC(F)(F)c1ccc(Cl)cc1,-3.7276952246
564,1-chloro-4-methoxybenzene,COc1ccc(Cl)cc1,-2.779325494
565,1-chloro-4-methylbenzene,Cc1ccc(Cl)cc1,-3.173067934775
566,1-chloro-4-nitrobenzene,[O-][N+](=O)c1ccc(Cl)cc1,-2.7737056991499998
567,1-chlorobutane,CCCCCl,-2.925072887
568,1-chlorohexane,CCCCCCCl,-2.8944227554
569,1-chlorooctane,CCCCCCCCCl,-4.82758935975
570,1-chloropropane,CCCCl,-0.45975922573333333
571,1-cyanoprop-2-en-1-yl acetate,CC(=O)OC(C=C)C#N,-0.8986939452
572,1-cyclohexyl-3-[4-({4-[(cyclohexylcarbamoyl)amino]phenyl}methyl)phenyl]urea,O=C(NC1CCCCC1)Nc2ccc(Cc3ccc(NC(=O)NC4CCCCC4)cc3)cc2,-5.142667396
573,1-cyclohexylethyl acetate,CC(OC(C)=O)C1CCCCC1,-3.5976237668
574,1-cyclohexylethyl butanoate,CCCC(=O)OC(C)C1CCCCC1,-3.9207588975
575,1-dodecylpyrrolidin-2-one,CCCCCCCCCCCCN1CCCC1=O,-3.6903674805
576,1-ethenylazepan-2-one,C=CN1CCCCCC1=O,-0.4507860761
577,1-ethenylsulfanylethanol,CC(O)SC=C,0.0054931194
578,1-ethoxy-2-(2-methoxyethoxy)ethane,CCOCCOCCOC,0.8291459355
579,1-ethoxybutane,CCCCOCC,-1.5499606595
580,"1-ethyl-6-hydroxy-4-methyl-5-[(E)-2-(2-nitrophenyl)diazen-1-yl]-2-oxo-1,2-dihydropyridine-3-carbonitrile",CCN1C(=O)C(=N/Nc2ccccc2[N+]([O-])=O)\C(=C(C#N)C1=O)C,-6.815976001
581,1-ethylpiperidine,CCN1CCCCC1,-1.2757105223
582,1-ethylpyrrolidin-2-one,CCN1CCCC1=O,0.9463070612
583,1-ethynylcyclohexanol,OC1(CCCCC1)C#C,-0.7048960629
584,1-ethynylcyclohexyl acetate,CC(=O)OC1(CCCCC1)C#C,-2.352215179
585,1-hydroxy-1-phenylacetone,CC(=O)C(O)c1ccccc1,-1.1766034244