,Name,SMILES,Solubility
1948,"6-Methylene-3,20-dioxopregn-4-en-17-yl acetate",CC(=O)OC1(CCC2C3CC(=C)C4=CC(=O)CCC4(C)C3CCC12C)C(C)=O,-6.1077931611
1949,"6-O-acetyl-1,3,4-tri-O-isobutyryl-beta-D-fructofuranosyl 6-O-acetyl-2,3,4-tri-O-isobutyryl-alpha-D-glucopyranoside",CC(C)C(=O)OC[C@H]1O[C@@](COC(C)=O)(O[C@H]2O[C@H](COC(C)=O)[C@@H](OC(=O)C(C)C)[C@H](OC(=O)C(C)C)[C@H]2OC(=O)C(C)C)[C@@H](OC(=O)C(C)C)[C@@H]1OC(=O)C(C)C,-6.0735348087
1950,6-[(1-formyloctyl)amino]hexanoic acid,CC(C)CCCCCC(=O)NCCCCCC(O)=O,-2.76161190895
1951,6-[(2-methylprop-2-enoyl)oxy]hexyl 2-methylprop-2-enoate,CC(=C)C(=O)OCCCCCCOC(=O)C(C)=C,-4.0436629248
1952,"6-[(3-{[(6-carboxycyclohex-3-en-1-yl)carbonyl]oxy}-2,2-dimethylpropoxy)carbonyl]cyclohex-3-ene-1-carboxylate",CC1(C)COC(=O)C2CC=CCC2C(=O)OC1,-3.0041810563
1953,6-[3-(decanoyloxy)-2-[(heptanoyloxy)methyl]-2-[(octanoyloxy)methyl]propoxy]-6-oxohexanoic acid,CCCCCCCCCC(O)=O,-5.8530645557
1954,"6-amino-1,3-dimethyl-1,2,3,4-tetrahydropyrimidine-2,4-dione",CN1C(=CC(=O)N(C)C1=O)N,-1.4535787311
1955,"6-amino-2-(2,4-dimethylphenyl)-1H-benzo[de]isoquinoline-1,3(2H)-dione",Cc1ccc(N2C(=O)c3cccc4c(N)ccc(C2=O)c34)c(C)c1,-4.8916555333
1956,6-amino-4-hydroxynaphthalene-2-sulfonic acid,Nc1ccc2cc(cc(O)c2c1)[S](O)(=O)=O,-2.8833112394
1957,6-aminonaphthalene-2-sulfonic acid,Nc1ccc2cc(ccc2c1)[S](O)(=O)=O,-3.2696160575
1958,"6-chloro-2,3-dihydro-1H-indol-2-one",Clc1ccc2CC(=O)Nc2c1,-2.9689885527
1959,"6-chloro-2-(6-chloro-4-methyl-3-oxo-2,3-dihydro-1-benzothiophen-2-ylidene)-4-methyl-2,3-dihydro-1-benzothiophen-3-one",Cc1cc(Cl)cc2SC(/C(=O)c12)=C/3Sc4cc(Cl)cc(C)c4C3=O,-7.9319837821
1960,"6-chloro-2-N,4-N-diethyl-1,3,5-triazine-2,4-diamine",CCNc1nc(Cl)nc(NCC)n1,-4.5809118175
1961,"6-chloro-5-(2-chloroethyl)-2,3-dihydro-1H-indol-2-one",ClCCc1cc2CC(=O)Nc2cc1Cl,-4.7775740697
1962,"6-chloro-N,N'-diisopropyl-1,3,5-triazine-2,4-diamine",CC(C)Nc1nc(Cl)nc(NC(C)C)n1,-4.8840681001
1963,"6-chloro-N-ethyl-N'-isopropyl-1,3,5-triazine-2,4-diamine",CCNc1nc(Cl)nc(NC(C)C)n1,-3.8296270649
1964,6-chlorohexan-1-ol,OCCCCCCCl,-1.0824421952
1965,6-chlorohexan-2-one,CC(=O)CCCCCl,-1.4155738757
1966,"6-ethoxy-2,2,4-trimethyl-1,2-dihydroquinoline",CCOc1ccc2NC(C)(C)C=C(C)c2c1,-3.3725788124
1967,6-heptyloxan-2-one,CCCCCC1CCCC(=O)O1,-1.6290322311
1968,"6-hydroxy-1,4-dihydropyrimidin-4-one",OC1=CC(=O)NC=N1,-1.4676593778666664
1969,6-hydroxy-2-naphthoic acid,OC(=O)c1ccc2cc(O)ccc2c1,-3.2789428853
1970,"6-methoxy-1,2,3,4-tetrahydronaphthalene",COc1ccc2CCCCc2c1,-2.7477385243
1971,6-methylhept-1-ene,CC(C)CCCC=C,-3.9377882527000003
1972,6-methylhept-5-en-2-one,CC(C)=CCCC(C)=O,-1.6210489706
1973,6-methyloct-5-en-2-one,CC\C(C)=C\CCC(C)=O,-2.29877709405
1974,6-pent-3-en-1-yltetrahydro-2H-pyran-2-one,C/C=C/CCC1CCCC(=O)O1,-1.4712429428666667
1975,"6-phenyl-1,3,5-triazine-2,4-diamine",Nc1nc(N)nc(n1)c2ccccc2,-2.63066914955
1976,"6-{[amino(phenyl)acetyl]amino}-3,3-dimethyl-7-oxo-4-thia-1-azabicyclo[3.2.0]heptane-2-carboxylic acid",CC1(C)S[C@@H]2[C@H](NC(=O)[C@H](N)c3ccccc3)C(=O)N2[C@H]1C(O)=O,-1.5390164423
1977,"6H-dibenzo[c,e][1,2]oxaphosphinine 6-oxide",O=[P+]1Oc2ccccc2c3ccccc13,-1.7796231349
1978,"7,18-bis(3,5-dimethylphenyl)-7,18-diazaheptacyclo[14.6.2.2²,?.0³,¹².0?,?.0¹³,²³.0²?,²?]hexacosa-1(22),2,4,9,11,13(23),14,16(24),20,25-decaene-6,8,17,19-tetrone",Cc1cc(C)cc(c1)N2C(=O)c3ccc4c5ccc6C(=O)N(c7cc(C)cc(C)c7)C(=O)c8ccc(c9ccc(C2=O)c3c49)c5c68,-8.6310507548
1979,"7,18-dimethyl-7,18-diazaheptacyclo[14.6.2.2²,?.0³,¹².0?,?.0¹³,²³.0²?,²?]hexacosa-1(22),2,4,9,11,13(23),14,16(24),20,25-decaene-6,8,17,19-tetrone",CN1C(=O)c2ccc3c4ccc5C(=O)N(C)C(=O)c6ccc(c7ccc(C1=O)c2c37)c4c56,-7.6009036371
1980,7-amino-3-methyl-8-oxo-5-thia-1-azabicyclo[4.2.0]oct-2-ene-2-carboxylic acid,CC1=C(N2C(SC1)C(N)C2=O)C(O)=O,-3.0453554133
1981,"7-amino-4-hydroxy-3-[[4-[(4-sulphophenyl)azo]phenyl]azo]naphthalene-2-sulphonic acid, compound with 2,2',2''-nitrilotriethanol (1:2)",Nc1ccc2C(=O)C(=N/Nc3ccc(cc3)N=Nc4ccc(cc4)[S](O)(=O)=O)\C(=Cc2c1)[S](O)(=O)=O,-0.6359046156
1982,7-amino-4-hydroxynaphthalene-2-sulfonic acid,Nc1ccc2c(O)cc(cc2c1)[S](O)(=O)=O,-2.7283405791
1983,"7-chloro-5-(2-chlorophenyl)-2-oxo-2,3-dihydro-1H-1,4-benzodiazepin-3-yl acetate",CC(=O)OC1N=C(c2ccccc2Cl)c3cc(Cl)ccc3NC1=O,-5.0286669228
1984,"7-chloro-5-(2-chlorophenyl)-2-oxo-2,3-dihydro-1H-1,4-benzodiazepin-4-ium-4-olate",ON1CC(=O)N=C2C=CC(=CC2=C1c3ccccc3Cl)Cl,-4.4653328209
1985,"7-fluoro-1,3-dihydroindol-2-one",Fc1cccc2CC(=O)Nc12,-2.2251369084
1986,"7-hydroxy-3,7-dimethyloctanal",CC(CCCC(C)(C)O)CC=O,-0.6921365673
1987,"7-hydroxy-3,7-dimethyloctanal; 1H-indole",CC(CCCC(C)(C)O)CC=O,-4.9224509398
1988,"7-methyl-3,4-dihydro-2H-1,5-benzodioxepin-3-one",Cc1ccc2OCC(=O)COc2c1,-1.1141554489
1989,"7-methyl-3-methylideneocta-1,6-diene",CC(C)=CCCC(=C)C=C,-4.4301477426
1990,7-methyloctan-1-ol,CC(C)CCCCCCO,-2.91095187985
1991,7-oxabicyclo[4.1.0]heptan-3-ylmethyl 7-oxabicyclo[4.1.0]heptane-3-carboxylate,O=C(OCC1CCC2OC2C1)C3CCC4OC4C3,-1.2604846902
1992,"7-{[(2S,3R,4S,5S,6R)-4,5-dihydroxy-6-(hydroxymethyl)-3-{[(2S,3R,4R,5R,6S)-3,4,5-trihydroxy-6-methyloxan-2-yl]oxy}oxan-2-yl]oxy}-5-hydroxy-2-(4-hydroxyphenyl)-3,4-dihydro-2H-1-benzopyran-4-one",C[C@@H]1O[C@@H](O[C@@H]2[C@@H](O)[C@H](O)[C@@H](CO)O[C@H]2Oc3cc(O)c4C(=O)C[C@H](Oc4c3)c5ccc(O)cc5)[C@H](O)[C@H](O)[C@H]1O,-2.8936500557500002
1993,"7-{[4,5-dihydroxy-6-(hydroxymethyl)-3-[(3,4,5-trihydroxy-6-methyloxan-2-yl)oxy]oxan-2-yl]oxy}-5-hydroxy-2-(3-hydroxy-4-methoxyphenyl)-3,4-dihydro-2H-1-benzopyran-4-one",COc1ccc(cc1O)[C@@H]2CC(=O)c3c(O)cc(O[C@@H]4O[C@H](CO)[C@@H](O)[C@H](O)[C@H]4O[C@@H]5O[C@@H](C)[C@H](O)[C@@H](O)[C@H]5O)cc3O2,-5.1858488331
1994,"8,8-dimethyl-7-propan-2-yl-6,10-dioxaspiro[4.5]decane",CC(C)C1OC2(CCCC2)OCC1(C)C,-3.5242437705
1995,8-aminonaphthalene-2-sulfonic acid,Nc1cccc2ccc(cc12)[S](O)(=O)=O,-1.682279323
1996,"8-ethyl-10,12-diheptyl-9,11,13-trimethylhenicosane; 8-ethyl-10-heptyl-9,11-dimethylnonadecane",CCCCCCCCC=C,-6.146964797
1997,8-ethyl-9-methylheptadecane; 8-methyl-7-propylhexadecane,CCCCCCCCC(C)C(CC)CCCCCCC,-6.7521345295
1998,8-ethylundecan-1-amine,CCCC(CC)CCCCCCCN,-3.6976259568
1999,8-methylnonyl methacrylate,CC(C)CCCCCCCOC(=O)C(C)=C,-6.110207298000001
2000,"9,10-anthraquinone",O=C1c2ccccc2C(=O)c3ccccc13,-6.24276788485
2001,"9,10-dihydroanthracene-9,10-dione",O=C1c2ccccc2C(=O)c3ccccc13,-6.0880651777
2002,"9,9-dimethyldecanoic acid",CC(C)(C)CCCCCCCC(O)=O,-1.82597489185
2003,9-Methylnonadecane,CCCCCCCCCCC(C)CCCCCCCC,-6.4511045339
2004,"9-Octadecenoic acid (Z)-, reaction products with 2-[(2-aminoethyl)amino]ethanol",CCCCCCCC\C=C/CCCCCCCC(O)=O,-4.776830851733333
2005,"9-[2-(2-methoxyethoxy)ethoxy]-9-[3-(oxiran-2-ylmethoxy)propyl]-2,5,8,10,13,16-hexaoxa-9-silaheptadecane",COCCOCCO[Si](CCCOCC1CO1)(OCCOCCOC)OCCOCCOC,1.5823133383
2006,9-ethyl-9H-carbazole,CCn1c2ccccc2c3ccccc13,-6.813503151
2007,9H-carbazole,[nH]1c2ccccc2c3ccccc13,-5.147547803466667
2008,A mixture of RR and RS isomers of: (2-(2-methoxy-1-methyl)ethoxy)-1-methylethyl acetate; (2-(2-methoxy-2-methyl)ethoxy)-1-methylethyl acetate; (2-(2-methoxy-2-methyl)ethoxy)-2-methylethyl acetate; (2-(2-methoxy-1-methyl)ethoxy)-2-methylethyl acetate,CCC(OCCCOC)OC(C)=O,-0.0168484647
2009,"A mixture of: bis(2,2,6,6-tetramethyl-1-octyloxypiperidin-4-yl)-1,10-decanedioate; 1,8-bis[(2,2,6,6-tetramethyl-4-((2,2,6,6-tetramethyl-1-octyloxypiperidin-4-yl)-decan-1,10-dioyl)piperidin-1-yl)oxy]octane",CCCCCCCC,-5.0575951101
2010,"Acetic acid, esters with turpentine-oil myrcene fraction terpene alcs.",CC(=O)OC(C)(C)CCCC(=C)C=C,-3.9727518889
2011,Aescin,C/C=C(\C)/C(=O)OC1C(C2(C(CC1(C)C)C3=CCC4C5(CCC(C(C5CCC4(C3(CC2O)C)C)(C)CO)OC6C(C(C(C(O6)C(=O)O)OC7C(C(C(C(O7)CO)O)O)O)O)OC8C(C(C(C(O8)CO)O)O)O)C)CO)OC(=O)C,-1.1031036675
2012,"Alcohols, C11-14-iso-, C13-rich",CC(C)CCCCCCCCCCO,-4.5383960347
2013,"Alcohols, C12-13",C,-4.87038541565
2014,"Alcohols, C12-15-branched and linear",CCCCC[C@H](CCC)CCCO,-5.2617870908499995
2015,"Alcohols, C16-18 and C18-unsatd., ethoxylated",CCOCCCCCCCCCCCCCC\C=C\CC,-4.4545090924499995
2016,"Alcohols, C9-11-branched",CC(C)CCCCCCCO,-3.7507334407
2017,"Alcohols, C9-11-iso-, C10-rich",CC(C)CCCCCCCO,-3.3243784972
2018,Aldadiene,CC12CCC(=O)C=C1C=CC3C2CCC4(C)C3CCC45CCC(=O)O5,-4.1007061575
2019,"Alkenes, C9-11, C10-rich",CC/C=C/CC/C=C/C=C,-3.221390537
2020,Alpha-Methylglucoside,COC1OC(CO)C(O)C(O)C1O,0.7452125491
2021,"Amines, C12-16-alkyldimethyl",CCCCCCCCCCCCCCCCN(C)C,-4.3891934787
2022,"Amines, C16-18 and C18-unsatd. alkyl",CCCCCCCCCCCCCCCCN,-3.20765366544
2023,"Anthra[2,1,9-mna]naphtho[2,3-h]acridine-5,10,15(16H)-trione",O=C1c2ccccc2C(=O)c3c4Nc5ccc6c7ccccc7C(=O)c8ccc(c4ccc13)c5c68,-5.506567843
2024,"Benzenamine, N-phenyl-, styrenated",CC(c1ccccc1)c2ccc(Nc3ccc(cc3)C(C)c4ccccc4)cc2,-5.9641687617
2025,Benzo[cd]indol-2(1H)-one,O=C1Nc2cccc3cccc1c23,-3.2547670983
2026,Betamethasone,C[C@H]1C[C@H]2[C@@H]3CCC4=CC(=O)C=C[C@]4(C)[C@@]3(F)[C@@H](O)C[C@]2(C)[C@@]1(O)C(=O)CO,-3.7709815003
2027,"Bis(2-hydroxyethyl) 2-[(6-oxobenzo[c][2,1]benzoxaphosphinin-6-yl)methyl]butanedioate",OCCOC(=O)CC(C[P]1(=O)Oc2ccccc2c3ccccc13)C(=O)OCCO,-4.4617795617
2028,"Bisbenzimidazo[2,1-b:1',2'-j]benzo[lmn][3,8]phenanthroline-6,9-dione",O=C1n2c3ccccc3nc2c4ccc5c6nc7ccccc7n6C(=O)c8ccc1c4c58,-5.6330558482
2029,"Butanal, reaction products with aniline",CCCC=O,-4.5021013295
2030,"Butene, homopolymer (products derived from either/or But-1-ene/But-2-ene)",CCC=C,-4.6698435423
2031,C.i. Pigment Orange 43,O=C1n2c3ccccc3nc2c4ccc5C(=O)n6c7ccccc7nc6c8ccc1c4c58,-7.7579945848
2032,C.i. Pigment Red 179,CN1C(=O)c2ccc3c4ccc5C(=O)N(C)C(=O)c6ccc(c7ccc(C1=O)c2c37)c4c56,-7.7185099927
2033,C.i.Basic Violet 11,CC(C)c1ccc(N)cc1,-1.788586132
2034,Calcoloid Olive r,O=C(Nc1cc2c([nH]c3c2cc(NC(=O)c4ccccc4)c5C(=O)c6ccccc6C(=O)c35)c7C(=O)c8ccccc8C(=O)c17)c9ccccc9,-4.5222231174
2035,"Carboxylic acids, di-, C4-6",OC(=O)CCCC(O)=O,-0.1209521291
2036,Cedryl acetate,C[C@@H]1CC[C@H]2C(C)(C)C3CC12CCC3(C)OC(C)=O,-5.4266410391
2037,Cedryl methyl ether,CO[C@]1(C)CCC23C[C@@H]1C(C)(C)[C@@H]2CC[C@H]3C,-4.7401771795
2038,Cholesterol,CC(C)CCC[C@@H](C)[C@H]1CC[C@H]2[C@@H]3CC=C4C[C@@H](O)CC[C@]4(C)[C@H]3CC[C@]12C,-7.1001953639
2039,"D-Glucitol, propoxylated",OCCCOCC(OCCCO)C(OCCCO)C(OCCCO)C(COCCCO)OCCCO,0.053341445
2040,D-erythro-pentitol,OCC(O)C(O)C(O)CO,0.6252744891
2041,"Decahydrospiro[furan-2(3H),5'-[4,7]methano[5h]indene]",C1COC2(C1)CC3CC2C4CCCC34,-5.9415611202
2042,"Decanoic acid, ester with 2,2-bis(hydroxymethyl)-1,3-propanediol 2-ethylhexanoate octanoate",CCCCCCCCC(O)=O,-8.7655314659
2043,"Decanoic acid, mixed diesters with octanoic acid and propylene glycol",CCCCCCCCCC(O)=O,-6.8949548476
2044,"Decanoic acid, mixed esters with neopentyl glycol and octanoic acid",CCCCCCCCCC(O)=O,-6.6558855625
2045,"Decanoic acid, mixed esters with octanoic acid and pentaerythritol",CCCCCCCCCC(O)=O,-6.9567723715
2046,Desipramine,CNCCCN1c2ccccc2CCc3ccccc13,-3.6576170412
2047,Di-p-xylylene,C1Cc2ccc(CCc3ccc1cc3)cc2,-5.169478497
2048,Diazobarbituric acid,[N-]=[N+]=C1C(=O)NC(=O)NC1=O,-1.4717570191
2049,Dicyclopentadiene,C1C=CC2C3CC(C=C3)C12,-3.8202211698
2050,Dihydrodicyclopentadienyl acrylate,C=CC(=O)OC1C=CC2C3CCC(C3)C12,-3.7081424715
2051,"Dodecahydro-3,8,8,11a-tetramethyl-5H-3,5a-epoxynaphth(2,1-c)oxepin",CC1(C)CCCC2(C)C1CCC34COC(C)(CCC23)O4,-5.6453848366
2052,"Dodecan-1-ol, ethoxylated",CCCCCCCCCCCCOCCO,-1.4593774078
2053,Doramectin,CO[C@H]1C[C@@H](O[C@@H](C)[C@@H]1O)OC2[C@H](C)O[C@H](C[C@@H]2OC)OC3[C@@H](C)/C=C/C=C/4CO[C@@H]5[C@H](O)C(=C[C@@H](C(=O)O[C@H]6C[C@@H](C\C=C3/C)O[C@@]7(C6)O[C@@H]([C@@H](C)C=C7)C8CCCCC8)[C@]45O)C,-7.5558815137
2054,Estrone,C[C@]12CC[C@H]3[C@@H](CCc4cc(O)ccc34)[C@@H]1CCC2=O,-5.5511481213
2055,"Fatty acids, C5-9, hexaesters with dipentaerythritol",CCCCC(=O)OCC(CO)(CO)COCC(CO)(CO)CO,-6.8304564999
2056,"Fatty acids, C5-9, tetraesters with pentaerythritol",CCCCCCCOCC(COCCCCCCC)(COCCCCCCC)COCCCCCCC,-7.94522478
2057,"Fatty acids, C8-10",CCCCCCCCC(O)=O,-2.6924608884666665
2058,Fluocortolone,C[C@@H]1C[C@H]2[C@@H]3C[C@H](F)C4=CC(=O)C=C[C@]4(C)[C@H]3[C@@H](O)C[C@]2(C)[C@H]1C(=O)CO,-3.2037371554
2059,Fusel oil,CC(C)CCO,-0.3342051693666666
2060,"Glycerides, C16-22",CCCCCCCCCCCCCCCC(=O)OCC(O)CO,-4.7267916006
2061,Glycerin,OCC(O)CO,1.0357686635
2062,"Glycerol, ethoxylated",OCCOCC(COCCO)OCCO,0.6492617384
2063,"Glycerol, propoxylated, esters with acrylic acid",C=CC(=O)OCCCOCC(COCCCOC(=O)C=C)OCCCOC(=O)C=C,-2.5527472821
2064,Heptan-1-ol,CCCCCCCO,-1.8530334733
2065,"Heptanoic acid, ester with 2-ethyl-2-(hydroxymethyl)-1,3-propanediol pentanoate",CCCCCCC(=O)OCC(CC)(CO)COC(=O)CCCC,-5.982567027
2066,"Hydrocarbons, C4-6, C5-rich",CCCCC,-2.2796651348
2067,"Hydrocarbons, C5-rich",CCCCC,-2.813269200528571
2068,Indanthren Rubine rs,CCn1nc2cc(cc3C(=O)c4ccccc4c1c23)c5cc6nn(CC)c7c8ccccc8C(=O)c(c5)c67,-4.3931837232
2069,Indanthrene,O=C1c2ccccc2C(=O)c3c4Nc5ccc6C(=O)c7ccccc7C(=O)c6c5Nc4ccc13,-7.9468745633
2070,Isolongifolanone,CC1(C)C2CCC3(C2)C1C(=O)CCC3(C)C,-4.0976122125
2071,L-prolinamide,NC(=O)[C@@H]1CCC[NH2+]1,0.7853597575
2072,L-sorbosonic acid,OC[C@H](O)[C@@H](O)[C@H](O)C(=O)C(O)=O,0.2373207652
2073,Longifolene,CC1(C)CCCC2(C)C3CCC(C13)C2=C,-4.4127624272
2074,Methenamine,C1N2CN3CN1CN(C2)C3,0.7924026819
2075,"Methyl 3-[n-ethyl-4-[(5-nitro-2,1-benzothiazol-3-yl)azo]anilino]propanoate",CCN(CCC(=O)OC)c1ccc(cc1)N=Nc2snc3ccc(cc23)[N+]([O-])=O,-7.3154024542
2076,Methyl morpholine oxide,C[N+]1([O-])CCOCC1,0.4563099285
2077,"N',N'''''-hexane-1,6-diylbis[N-(4-chlorophenyl)(imidodicarbonimidic diamide)]",NC(Nc1ccc(Cl)cc1)=NC(N)=NCCCCCCN=C(N)N=C(N)Nc2ccc(Cl)cc2,-2.8005950876
2078,"N',N''''-hexane-1,6-diylbis(1-cyanoguanidine)",NC(NC#N)=NCCCCCCN=C(N)NC#N,-4.57148624655
2079,N'-acetylacetohydrazide,CC(=O)NNC(C)=O,0.38445556365
2080,"N,2,3-trimethyl-2-(propan-2-yl)butanamide",CNC(=O)C(C)(C(C)C)C(C)C,-1.3948677058
2081,"N,2-dimethyl-N-phenylbutanamide",CCC(C)C(=O)N(C)c1ccccc1,-1.5805795126
2082,"N,N',N'',N'''-tetrakis(4,6-bis(butyl-(N-methyl-2,2,6,6-tetramethylpiperidin-4-yl)amino)triazin-2-yl)-4,7-diazadecane-1,10-diamine",CCCCN(C1CC(C)(C)N(C)C(C)(C)C1)c2nc(NCCCN(CCN(CCCNc3nc(nc(n3)N(CCCC)C4CC(C)(C)N(C)C(C)(C)C4)N(CCCC)C5CC(C)(C)N(C)C(C)(C)C5)c6nc(nc(n6)N(CCCC)C7CC(C)(C)N(C)C(C)(C)C7)N(CCCC)C8CC(C)(C)N(C)C(C)(C)C8)c9nc(nc(n9)N(CCCC)C%10CC(C)(C)N(C)C(C)(C)C%10)N(CCCC)C%11CC(C)(C)N(C)C(C)(C)C%11)nc(n2)N(CCCC)C%12CC(C)(C)N(C)C(C)(C)C%12,-5.592004669566667
2083,"N,N'-(3,3'-dimethylbiphenyl-4,4'-diyl)bis(3-oxobutanamide)",CC(=O)CC(=O)Nc1ccc(cc1C)c2ccc(NC(=O)CC(C)=O)c(C)c2,-5.3250182341
2084,"N,N'-bis(2,6-diisopropylphenyl)carbodiimide",CC(C)c1cccc(C(C)C)c1N=C=Nc2c(cccc2C(C)C)C(C)C,-6.8604110817
2085,"N,N'-bis(3-phenylprop-2-en-1-ylidene)hexane-1,6-diamine",C(CCCN=C\C=C\c1ccccc1)CCN=C/C=C/c2ccccc2,-3.8937390711
2086,"N,N'-phenylene-1,4-bis[4-[(2,5-dichlorophenyl)azo]-3-hydroxynaphthalene-2-carboxamide]",Oc1cc2ccccc2cc1C(=O)N=NNc3cc(Cl)c(cc3Cl)c4ccc(cc4)c5cc(Cl)c(NN=NC(=O)c6cc7ccccc7cc6O)cc5Cl,-8.0871707055
2087,"N,N,N',N'-tetrakis(2-hydroxypropyl)hexanediamide",CC(O)CN(CC(C)O)C(=O)CCCCC(=O)N(CC(C)O)CC(C)O,0.2109933627
2088,"N,N,N-triethylethanaminium 1,1,2,2,3,3,4,4,5,5,6,6,7,7,8,8,8-heptadecafluorooctane-1-sulfonate",CC[N+](CC)(CC)CC,-0.0721808988
2089,"N,N-DIBUTYLDODECANAMIDE",CCCCCCCCCCCC(=O)N(CCCC)CCCC,-7.0164120768
2090,"N,N-bis(2-hydroxyethyl)undec-10-enamide",OCCN(CCO)C(=O)CCCCCCCCC=C,-2.7615135856
2091,"N,N-bis(carboxymethyl)-L-glutamic acid",OC(=O)CCC(N(CC(O)=O)CC(O)=O)C(O)=O,0.1227643209
2092,"N,N-dibutyl({[(dibutylcarbamothioyl)sulfanyl]methyl}sulfanyl)carbothioamide",CCCCN(CCCC)C(=S)SCSC(=S)N(CCCC)CCCC,-6.2405235691
2093,"N,N-dibutyloctadec-9-enamide",CCCCCCCC\C=C/CCCCCCCC(=O)N(CCCC)CCCC,-4.7889854408
2094,"N,N-diethyl-4-[(E)-2-phenyldiazen-1-yl]aniline",CCN(CC)c1ccc(cc1)N=Nc2ccccc2,-5.9821152675
2095,"N,N-diethyl[(diethylcarbamothioyl)disulfanyl]carbothioamide",CCN(CC)C(=S)SSC(=S)N(CC)CC,-4.8603775493
2096,"N,N-diethylhydroxylamine",CCN(O)CC,0.64776124935
2097,"N,N-diisobutylformamide",CC(C)CN(CC(C)C)C=O,-1.082666634
2098,"N,N-dimethyl-3-oxobutanamide",CN(C)C(=O)CC(C)=O,0.8888753261
2099,"N,N-dimethyl-N'-(2,2,6,6-tetramethylpiperidin-4-yl)propane-1,3-diamine",CN(C)CCCNC1CC(C)(C)NC(C)(C)C1,0.316191362
2100,"N,N-dimethyl[(dimethylcarbamothioyl)sulfanyl]carbothioamide",CN(C)C(=S)SC(=S)N(C)C,-2.8302990647
2101,"N,N-dimethylacetamide",CN(C)C(C)=O,1.0598721633
2102,"N,N-dimethylaniline",CN(C)c1ccccc1,-1.9631670755
2103,"N,N-dimethylcyclohexanamine",CN(C)C1CCCCC1,-0.9774881423
2104,"N,N-dimethyldecan-1-amine",CCCCCCCCCCN(C)C,-3.8502541418
2105,"N,N-dimethyldecanamide",CCCCCCCCCC(=O)N(C)C,-2.7681111795
2106,"N,N-dimethyldodecan-1-amine",CCCCCCCCCCCCN(C)C,-4.5766377416
2107,"N,N-dimethyldodecanamide",CCCCCCCCCCCC(=O)N(C)C,-3.9093070505
2108,"N,N-dimethylformamide",CN(C)C=O,1.1361123296
2109,"N,N-dimethylhexadecan-1-amine",CCCCCCCCCCCCCCCCN(C)C,-5.0459812090666665
2110,"N,N-dimethylnonanamide",CCCCCCCCC(=O)N(C)C,-2.1440495587
2111,"N,N-dimethyloctanamide",CCCCCCCC(=O)N(C)C,-1.6002483409
2112,"N,N-dimethyltetradecan-1-amine",CCCCCCCCCCCCCCN(C)C,-3.9356925608
2113,"N,N-dipropylpropan-1-amine",CCCN(CCC)CCC,-2.4905023355
2114,"N-(1,3-benzothiazol-2-ylsulfanyl)-N-cyclohexylcyclohexanamine",C1CCC(CC1)N(Sc2sc3ccccc3n2)C4CCCCC4,-6.388169747366667
2115,"N-(1,3-benzothiazol-2-ylsulfanyl)cyclohexanamine",C1CCC(CC1)NSc2sc3ccccc3n2,-5.9000918393
2116,"N-(1,4-dimethylpentyl)-N'-phenylbenzene-1,4-diamine",CC(C)CCC(C)Nc1ccc(Nc2ccccc2)cc1,-5.624837561
2117,N-(1-benzylpiperidin-4-yl)-N-phenylpropanamide,CCC(=O)N(C1CCN(CC1)Cc2ccccc2)c3ccccc3,-3.4150433898
2118,N-(1-cyanoethyl)formamide,CC(NC=O)C#N,1.0083088579
2119,"N-(10-benzamido-6,13-diacetamido-2,9-diethoxy-5,12-dioxa-7,14-diazapentacen-3-yl)benzamide",CCOc1cc2N=C3C(=C4Oc5cc(NC(=O)c6ccccc6)c(OCC)cc5N=C4C(=C3Oc2cc1NC(=O)c7ccccc7)NC(C)=O)NC(C)=O,-7.8613826501
2120,"N-(2,2,6,6-tetramethylpiperidin-4-yl)-N-{6-[N-(2,2,6,6-tetramethylpiperidin-4-yl)formamido]hexyl}formamide",CC1(C)CC(CC(C)(C)N1)N(CCCCCCN(C=O)C2CC(C)(C)NC(C)(C)C2)C=O,-1.5399557688
2121,"N-(2,4,4-trimethylpentan-2-yl)prop-2-enamide",CC(C)(C)CC(C)(C)NC(=O)C=C,-2.2588292445
2122,"N-(2,4-dimethylphenyl)-3-oxobutanamide",CC(=O)CC(=O)Nc1ccc(C)cc1C,-1.9900786823
2123,"N-(2,5-dichloro-4-{4-[(E)-2-(2,5-dichlorophenyl)diazen-1-yl]-3-hydroxynaphthalene-2-amido}phenyl)-4-[(E)-2-(2,5-dichlorophenyl)diazen-1-yl]-3-hydroxynaphthalene-2-carboxamide",Clc1ccc(Cl)c(N\N=C2/C(=O)C(=Cc3ccccc23)C(=O)Nc4cc(Cl)c(NC(=O)C5=Cc6ccccc6C(=N/Nc7cc(Cl)ccc7Cl)\C5=O)cc4Cl)c1,-8.1508681249
2124,"N-(2,5-dimethoxyphenyl)acetamide",COc1ccc(OC)c(NC(C)=O)c1,-1.5915498548
2125,"N-(2,6-difluorophenyl)-5-methyl-[1,2,4]triazolo[1,5-a]pyrimidine-2-sulfonamide",Cc1ccn2nc(nc2n1)[S](=O)(=O)Nc3c(F)cccc3F,-3.4223789518
2126,"N-(2,6-dimethylphenyl)-2-piperazine-1,4-diium-1-ylacetamide",Cc1cccc(C)c1NC(=O)C[NH+]2CC[NH2+]CC2,0.4432827885
2127,N-(2-chlorophenyl)-3-oxobutanamide,CC(=O)CC(=O)Nc1ccccc1Cl,-2.398186851766667
2128,N-(2-ethoxyphenyl)-3-hydroxynaphthalene-2-carboxamide,CCOc1ccccc1NC(=O)c2cc3ccccc3cc2O,-5.1866018088
2129,N-(2-ethoxyphenyl)-N'-(2-ethylphenyl)ethanediamide,CCOc1ccccc1NC(=O)C(=O)Nc2ccccc2CC,-6.0175466725
2130,N-(2-ethoxyphenyl)-N'-[4-(10-methylundecyl)phenyl]ethanediamide,CCOc1ccccc1NC(=O)C(=O)Nc2ccc(CCCCCCCCCC(C)C)cc2,-6.0994494699
2131,N-(2-ethylhexyl)-7-methyloctanamide,CCCCC(CC)CNC(=O)CCCCCC(C)C,-5.731545253
2132,N-(2-hydroxyethyl)octadecanamide,CCCCCCCCCCCCCCCCCC(=O)NCCO,-5.5152815814
2133,N-(2-methoxy-5-methylphenyl)acetamide,COc1ccc(C)cc1NC(C)=O,-1.931164755
2134,N-(2-methoxyphenyl)-3-oxobutanamide,COc1ccccc1NC(=O)CC(C)=O,-1.8059055211
2135,N-(2-methylphenyl)-3-oxobutanamide,CC(=O)CC(=O)Nc1ccccc1C,-1.8273135156000002
2136,"N-(2-oxo-2,3-dihydropyrimidin-4-yl)benzamide",O=C1NC(=CC=N1)NC(=O)c2ccccc2,-5.1596802151
2137,"N-(3-aminopropyl)-N'-octadec-9-en-1-ylpropane-1,3-diamine",CCCCCCCC\C=C/CCCCCCCCNCCCNCCCN,-3.7183913352
2138,"N-(3-chloro-4-{4-[(E)-2-(2,5-dichlorophenyl)diazen-1-yl]-3-hydroxynaphthalene-2-amido}phenyl)-4-[(E)-2-(2,5-dichlorophenyl)diazen-1-yl]-3-hydroxynaphthalene-2-carboxamide",Clc1ccc(Cl)c(N\N=C2\C(=O)C(=Cc3ccccc23)C(=O)Nc4ccc(NC(=O)C5=Cc6ccccc6C(=N/Nc7cc(Cl)ccc7Cl)\C5=O)c(Cl)c4)c1,-7.8692982631