,Name,SMILES,Solubility
586,"1-hydroxy-4-[(4-methylphenyl)amino]-9,10-dihydroanthracene-9,10-dione",Cc1ccc(Nc2ccc(O)c3C(=O)c4ccccc4C(=O)c23)cc1,-7.5491813124
587,"1-hydroxy-4-methyl-6-(2,4,4-trimethylpentyl)pyridin-2(1H)-one - 2-aminoethanol (1:1)",CC(CC1=CC(=CC(=O)N1O)C)CC(C)(C)C,-3.615475162266667
588,1-hydroxypropan-2-yl 2-methylprop-2-enoate 2-hydroxypropyl 2-methylprop-2-enoate,CC(CO)OC(=O)C(C)=C,-0.0449315461
589,1-hydroxypropan-2-yl prop-2-enoate 2-hydroxypropyl prop-2-enoate,OCCCOC(=O)C=C,0.8855791863
590,1-isocyanato-4-(4-isocyanato-3-methylphenyl)-2-methylbenzene,Cc1cc(ccc1N=C=O)c2ccc(N=C=O)c(C)c2,-2.308127519
591,1-methoxy-2-(2-methoxyethoxy)ethane,COCCOCCOC,0.8454562496
592,1-methoxy-2-methylbenzene,COc1ccccc1C,-2.6890833932
593,1-methoxy-4-methylbenzene,COc1ccc(C)cc1,-2.3395421013
594,1-methoxyhexane,CCCCCCOC,-2.2450853258
595,1-methoxypropan-2-ol,COCC(C)O,1.0451691789
596,1-methoxypropan-2-yl acetate,COCC(C)OC(C)=O,0.04583164713333333
597,"1-methyl 1,2,2,6,6-pentamethylpiperidin-4-yl decanedioate bis(1,2,2,6,6-pentamethylpiperidin-4-yl) decanedioate",COC(=O)CCCCCCCCC(=O)OC1CC(C)(C)N(C)C(C)(C)C1,-4.54033233245
598,1-methyl-1-(4-methylcyclohex-3-en-1-yl)ethyl acetate,CC(=O)OC(C)(C)C1CCC(=CC1)C,-3.931170339
599,1-methyl-1H-imidazole,Cn1ccnc1,1.0856251051
600,"1-methyl-2,4-dinitrobenzene; 2-methyl-1,3-dinitrobenzene",Cc1ccc(cc1[N+]([O-])=O)[N+]([O-])=O,-3.0622937365
601,1-methyl-2-nitrobenzene,Cc1ccccc1[N+]([O-])=O,-2.4966763745
602,1-methyl-3-nitrobenzene,Cc1cccc(c1)[N+]([O-])=O,-2.4568788874666665
603,1-methyl-3-oxoandrostan-17-yl acetate,C[C@H]1CC(=O)C[C@@H]2CC[C@H]3[C@@H]4CC[C@H](OC(C)=O)[C@@]4(C)CC[C@@H]3[C@@]12C,-5.0925589945
604,1-methyl-4-(prop-1-en-2-yl)cyclohex-1-ene,CC(=C)C1CCC(=CC1)C,-3.652825388666667
605,1-methyl-4-(propan-2-yl)cyclohex-1-ene,CC(C)C1CCC(=CC1)C,-5.0103439368
606,1-methyl-4-(propan-2-yl)cyclohexane,CC1CCC(CC1)C(C)C,-5.3545731075
607,1-methyl-4-(propan-2-ylidene)cyclohex-1-ene,CC(C)=C1CCC(=CC1)C,-4.38181489865
608,1-methyl-4-nitrobenzene,Cc1ccc(cc1)[N+]([O-])=O,-2.55714125245
609,1-methylpyrrolidin-2-one,CN1CCCC1=O,1.0037817508
610,1-methylurea,CNC(N)=O,1.1302814392
611,1-nitroguanidine,NC(N)=N[N+]([O-])=O,-1.5005648324
612,1-octylpyrrolidin-2-one,CCCCCCCCN1CCCC1=O,-2.237981366357143
613,1-phenoxypropan-2-ol,CC(O)COc1ccccc1,-1.0034177306
614,"1-phenyl-2,5-dihydro-1H-pyrrole-2,5-dione",O=C1C=CC(=O)N1c2ccccc2,-2.3273175561
615,"1-phenyldecane-1,3-dione",CCCCCCCC(=O)CC(=O)c1ccccc1,-5.865882744866667
616,1-phenylethan-1-ol,CC(O)c1ccccc1,-2.0869539092
617,1-phenylethan-1-one,CC(=O)c1ccccc1,-1.2957917268999999
618,1-phenylethan-1-one; 2-phenylpropan-2-ol; phenol,CC(=O)c1ccccc1,-1.7593061432
619,1-phenylethanamine,CC(N)c1ccccc1,-0.4601924093
620,1-phenylethanamine,C[C@H](N)c1ccccc1,-0.4601924093
621,1-phenylpropan-1-ol,CCC(O)c1ccccc1,-2.3403675905
622,1-phenylpyrazolidin-3-one,O=C1CCN(N1)c2ccccc2,-1.1448233011
623,1-phenylvinyl acetate,CC(=O)OC(=C)c1ccccc1,-2.1135953878
624,1-tert-butyl-4-methylbenzene,Cc1ccc(cc1)C(C)(C)C,-4.5204767747000005
625,1-tert-butyl-4-vinylbenzene,CC(C)(C)c1ccc(C=C)cc1,-4.5633510279
626,1-{[3-(triethoxysilyl)propyl]sulfanyl}octan-1-one,CCCCCCCC(=O)SCCC[Si](OCC)(OCC)OCC,-4.47368384055
627,1-{[bis(2-chloroethoxy)phosphoryl]oxy}-2-({[bis(2-chloroethoxy)phosphoryl]oxy}methyl)-3-chloro-2-(chloromethyl)propane,ClCCO[P](=O)(OCCCl)OCC(CCl)(CCl)CO[P](=O)(OCCCl)OCCCl,-3.4001753553
628,1-{bis[3-(dimethylamino)propyl]amino}propan-2-ol,CC(O)CN(CCCN(C)C)CCCN(C)C,0.6101059749
629,"1-{bis[4-(diethylamino)phenyl]methyl}naphthalene-2,7-disulfonic acid",CCN(CC)c1ccc(cc1)C(c2ccc(cc2)N(CC)CC)c3c4cc(ccc4ccc3[S](O)(=O)=O)[S](O)(=O)=O,-0.6984761494
630,"10,13-dimethyl-17-(2-methyl-1,3-dioxolan-2-yl)-1,2,4,9,10,11,12,13,14,15,16,17-dodecahydrospiro[cyclopenta[a]phenanthrene-3,2'-[1,3]dioxolane]",CC1(OCCO1)C2CCC3C4=CC=C5CC6(CCC5(C)C4CCC23C)OCCO6,-6.7001197149
631,10-(prop-2-enoyloxy)decyl prop-2-enoate,C=CC(=O)OCCCCCCCCCCOC(=O)C=C,-4.9608754545
632,10-Methoxyiminostilbene,COC1=Cc2ccccc2Nc3ccccc13,-4.5144193944
633,10-[(2-methylprop-2-enoyl)oxy]decyl 2-methylprop-2-enoate,CC(=C)C(=O)OCCCCCCCCCCOC(=O)C(C)=C,-6.3502060506
634,10H-phenothiazine,N1c2ccccc2Sc3ccccc13,-6.2580666707
635,"11,16,17,21-tetrahydroxypregna-1,4-diene-3,20-dione",CC12CC(O)C3C(CCC4=CC(=O)C=CC34C)C1CC(O)C2(O)C(=O)CO,-2.6645485391
636,"11,17,21-trihydroxypregn-4-ene-3,20-dione",C[C@]12CCC(=O)C=C1CC[C@H]3[C@@H]4CC[C@](O)(C(=O)CO)[C@@]4(C)C[C@H](O)[C@H]23,-3.1121092438
637,"11,17-dihydroxy-3,20-dioxopregn-4-en-21-yl acetate",CC(=O)OCC(=O)[C@@]1(O)CC[C@H]2[C@@H]3CCC4=CC(=O)CC[C@]4(C)[C@H]3[C@@H](O)C[C@]12C,-3.1597637156
638,11-aminoundecanoic acid,NCCCCCCCCCCC(O)=O,-2.3876108925
639,11-ethyl-5-methylpentadecanoic acid,CCCCC(CC)CCCCCC(C)CCCC(O)=O,-5.0561178371
640,"11-methyldodecyl 2-{[(3,5-di-tert-butyl-4-hydroxyphenyl)methyl]sulfanyl}acetate",CC(C)CCCCCCCCCCOC(=O)CSCc1cc(c(O)c(c1)C(C)(C)C)C(C)(C)C,-6.7895895249
641,12-[(2-methylprop-2-enoyl)oxy]dodecyl 2-methylprop-2-enoate,CC(=C)C(=O)OCCCCCCCCCCCCOC(=O)C(C)=C,-7.484220298
642,12-aminododecanoic acid,[NH3+]CCCCCCCCCCCC([O-])=O,-3.1963980912
643,12-hydroxy-N-[2-(12-hydroxyoctadecanamido)ethyl]octadecanamide,CCCCCCC(O)CCCCCCCCCCC(=O)NCCNC(=O)CCCCCCCCCCC(O)CCCCCC,-6.7352071916
644,12-hydroxyoctadecanoic acid,CCCCCCC(O)CCCCCCCCCCC(O)=O,-5.4883700889
645,"13-ethyl-3-methoxy-1,4,6,7,8,9,11,12,13,14,15,16-dodecahydro-17H-cyclopenta[a]phenanthren-17-one (non-preferred name)",CC[C@]12CC[C@H]3[C@@H](CCC4=C3CC=C(C4)OC)[C@@H]1CCC2=O,-5.7051070861
646,"13-ethyl-3-methoxy-4,6,7,8,9,11,12,13,14,15,16,17-dodecahydro-1H-cyclopenta[a]phenanthren-17-ol (non-preferred name)",CC[C@]12CC[C@H]3[C@@H](CCC4=C3CC=C(C4)OC)[C@@H]1CC[C@@H]2O,-4.7025138257
647,"13-ethyl-3-methoxy-6,7,11,12,13,14,15,16-octahydro-17H-cyclopenta[a]phenanthren-17-one (non-preferred name)",CC[C@]12CCC3=C(CCc4cc(OC)ccc34)[C@@H]1CCC2=O,-4.772922847
648,"14h-Anthra[2,1,9-mna]thioxanthen-14-one",O=C1c2ccccc2c3ccc4Sc5ccccc5c6ccc1c3c46,-7.9828073074
649,"14h-Benz[4,5]isoquino[2,1-a]perimidin-14-one",O=C1N2c3cccc4cccc(N=C2c5cccc6cccc1c56)c34,-7.2045960883
650,"16,23-dihydronaphth[2',3':6,7]indolo[2,3-c]dinaphtho[2,3-a:2'3'-i]carbazole-5,10,15,17,22,24-hexone",O=C1c2ccccc2C(=O)c3c4[nH]c5c6C(=O)c7ccccc7C(=O)c6c8[nH]c9c(ccc%10C(=O)c%11ccccc%11C(=O)c9%10)c8c5c4ccc13,-4.5096151077
651,16-Nitroviolanthrone,[O-][N+](=O)c1cc2c3ccccc3C(=O)c4ccc5c6ccc7C(=O)c8ccccc8c9ccc(c6c79)c1c5c24,-4.3992383437
652,16-methylheptadecan-1-ol,CC(C)CCCCCCCCCCCCCCCO,-6.2560776159
653,"17-Hydroxy-19-norpregn-4-ene-3,20-dione 17-acetate",CC(=O)O[C@@]1(CC[C@H]2[C@@H]3CCC4=CC(=O)CC[C@@H]4[C@H]3CC[C@]12C)C(C)=O,-4.9957539374
654,17-hydroxy-1-methylandrost-4-en-3-one,C[C@H]1CC(=O)C=C2CC[C@H]3[C@@H]4CC[C@H](O)[C@@]4(C)CC[C@@H]3[C@@]12C,-3.5264225666
655,17-hydroxy-1-methylandrostan-3-one,C[C@H]1CC(=O)C[C@@H]2CC[C@H]3[C@@H]4CC[C@H](O)[C@@]4(C)CC[C@@H]3[C@@]12C,-5.0064289581
656,"17-hydroxy-17-(3-hydroxyprop-1-yn-1-yl)-10,13-dimethyl-1,2,6,7,8,9,10,11,12,13,14,15,16,17-tetradecahydro-3H-cyclopenta[a]phenanthren-3-one (non-preferred name)",C[C@]12CCC(=O)C=C1CC[C@@H]3[C@@H]2CC[C@@]4(C)[C@H]3CCC4(O)C#CCO,-3.526033775
657,"17-hydroxy-3-methoxyestra-2,5(10)-diene-17-carbonitrile",COC1=CCC2=C(CCC3C2CCC4(C)C3CCC4(O)C#N)C1,-5.6832424476
658,"17-hydroxyandrosta-1,4-dien-3-one",C[C@]12CC[C@H]3[C@@H](CCC4=CC(=O)C=C[C@]34C)[C@@H]1CC[C@@H]2O,-3.7003596507
659,17-hydroxyandrostan-3-one,C[C@]12CC[C@H]3[C@@H](CC[C@H]4CC(=O)CC[C@]34C)[C@@H]1CC[C@@H]2O,-4.9189988507
660,17-hydroxypregn-4-en-20-yn-3-one,C[C@]12CCC(=O)C=C1CC[C@@H]3[C@@H]2CC[C@@]4(C)[C@H]3CC[C@@]4(O)C#C,-6.0523049298
661,"1H-1,2,4-triazol-3-amine",Nc1[nH]ncn1,0.7594911048749999
662,"1H-1,3-benzodiazole-2-thiol",S=C1Nc2ccccc2N1,-2.212655746733333
663,"1H-Thioxantheno[2,1,9-def]isoquinoline-1,3(2H)-dione, 2-octadecyl-",CCCCCCCCCCCCCCCCCCN1C(=O)c2ccc3Sc4ccccc4c5ccc(C1=O)c2c35,-7.9667891703
664,1H-benzimidazol-2-ol,O=C1Nc2ccccc2N1,-2.3927519971
665,1H-benzimidazole,[nH]1cnc2ccccc12,-1.769197233
666,1H-imidazole,[nH]1ccnc1,0.9784454514
667,1H-indole,[nH]1ccc2ccccc12,-1.5172960021
668,1H-pyrazole,[nH]1cccn1,1.2878896498
669,"2,14-diazahexacyclo[13.7.1.1?,?.0²,¹³.0¹?,²³.0¹²,²?]tetracosa-1(22),4,6,8(24),9,11,13,15,17,19(23),20-undecaen-3-one",O=C1N2c3cccc4cccc(N=C2c5cccc6cccc1c56)c34,-7.4642333989
670,"2,2',2'',2'''-(ethane-1,2-diyldinitrilo)tetraacetonitrile",N#CCN(CCN(CC#N)CC#N)CC#N,-2.843921258
671,"2,2',2''-nitrilotriacetic acid",OC(=O)CN(CC(O)=O)CC(O)=O,-2.17077264855
672,"2,2',2''-nitrilotriacetonitrile",N#CCN(CC#N)CC#N,-1.6475578342
673,"2,2',6,6'-Tetrabromo-4,4'-isopropylidenediphenol, oligomeric reaction products with 1-chloro-2,3-epoxypropane",CC(C)(c1cc(Br)c(O)c(Br)c1)c2cc(Br)c(O)c(Br)c2,-8.0386303219
674,"2,2'-(1,3-phenylene)dipropan-2-ol",CC(C)(O)c1cccc(c1)C(C)(C)O,-1.8302930169
675,"2,2'-(1,4-phenylene)bis[4-(4-methoxybenzylidene)-1,3-oxazol-5(4H)-one]",COc1ccc(cc1)\C=C/2N=C(OC2=O)c3ccc(cc3)C4=NC(=C/c5ccc(OC)cc5)/C(=O)O4,-6.9835711537
676,"2,2'-(2,5-dichloro-1,4-phenylene)bis(1H-anthra[1,2-d]imidazole-6,11-dione)",Clc1cc(c(Cl)cc1c2[nH]c3ccc4C(=O)c5ccccc5C(=O)c4c3n2)c6[nH]c7ccc8C(=O)c9ccccc9C(=O)c8c7n6,-4.5247759411
677,"2,2'-(octylimino)diethanol",CCCCCCCCN(CCO)CCO,-2.1910376032
678,"2,2'-({4-[(2-hydroxyethyl)amino]-3-nitrophenyl}imino)diethanol",OCCNc1ccc(cc1[N+]([O-])=O)N(CCO)CCO,-1.7953855716
679,"2,2'-[(3,3'-dichlorobiphenyl-4,4'-diyl)didiazene-2,1-diyl]bis[N-(4-ethoxyphenyl)-3-oxobutanamide]",CCOc1ccc(NC(=O)C(N=Nc2ccc(cc2Cl)c3ccc(N=NC(C(C)=O)C(=O)Nc4ccc(OCC)cc4)c(Cl)c3)C(C)=O)cc1,-7.8305826168
680,"2,2'-[(3,3'-dichlorobiphenyl-4,4'-diyl)didiazene-2,1-diyl]bis[N-(4-methylphenyl)-3-oxobutanamide]",CC(=O)C(N=Nc1ccc(cc1Cl)c2ccc(N=NC(C(C)=O)C(=O)Nc3ccc(C)cc3)c(Cl)c2)C(=O)Nc4ccc(C)cc4,-8.1019307222
681,"2,2'-[[4-[(3,5-dinitro-2-thienyl)azo]phenyl]imino]bisethyl diacetate",CC(=O)OCCN(CCOC(C)=O)c1ccc(cc1)N=Nc2sc(cc2[N+]([O-])=O)[N+]([O-])=O,-7.547293505
682,"2,2'-[ethylenebis(oxyphenyl-2,1-eneazo)]bis[N-(2,3-dihydro-2-oxo-1H-benzimidazol-5-yl)-3-oxobutyramide",CC(=O)C(N=Nc1ccccc1OCCOc2ccccc2N=NC(C(C)=O)C(=O)Nc3ccc4NC(=O)Nc4c3)C(=O)Nc5ccc6NC(=O)Nc6c5,-7.6344855683
683,"2,2'-biindole-3,3'(1H,1'H)-dione",O=C1\C(Nc2ccccc12)=C/3Nc4ccccc4C3=O,-6.7197753001
684,"2,2'-ethene-1,2-diylbis[5-({4-anilino-6-[bis(2-hydroxyethyl)amino]-1,3,5-triazin-2-yl}amino)benzenesulfonic acid]",OCCN(CCO)c1nc(Nc2ccccc2)nc(Nc3ccc(\C=C\c4ccc(Nc5nc(Nc6ccccc6)nc(n5)N(CCO)CCO)cc4[S](O)(=O)=O)c(c3)[S](O)(=O)=O)n1,-1.0592793487
685,"2,2'-oxybis(5,5-dimethyl-1,3,2-dioxaphosphinane) 2,2'-disulfide",CC1(C)CO[P](=S)(OC1)O[P]2(=S)OCC(C)(C)CO2,-5.3933833945
686,"2,2'-oxydiethanamine",NCCOCCN,0.9823282162
687,"2,2'-sulfanediyldiethanol",OCCSCCO,0.9129678895
688,"2,2'-vinylenebis[5-methylbenzoxazole]",Cc1ccc2oc(\C=C\c3oc4ccc(C)cc4n3)nc2c1,-6.0004819491
689,"2,2'-{propane-2,2-diylbis[(2,6-dibromo-4,1-phenylene)oxymethylene]}dioxirane",CC(C)(c1cc(Br)c(OCC2CO2)c(Br)c1)c3cc(Br)c(OCC4CO4)c(Br)c3,-7.3953018986
690,"2,2,2-trichloroacetaldehyde",ClC(Cl)(Cl)C=O,0.5296375478500001
691,"2,2,2-trichloroethane-1,1-diol",OC(O)C(Cl)(Cl)Cl,0.93685986115
692,"2,2,2-trifluoroethan-1-ol",OCC(F)(F)F,0.9998306582
693,"2,2,2-trifluoroethyl methacrylate",CC(=C)C(=O)OCC(F)(F)F,-2.2684756839
694,"2,2,3,3,4,4,5,5-octafluoropentyl 2-methylprop-2-enoate",CC(=C)C(=O)OCC(F)(F)C(F)(F)C(F)(F)C(F)F,-4.0481253615999995
695,"2,2,3,3,5,5,6,6-octafluoro-4-(trifluoromethyl)morpholine",FC(F)(F)N1C(F)(F)C(F)(F)OC(F)(F)C1(F)F,-5.5960586261
696,"2,2,4,4,6,12,15-heptamethyl-6-[(trimethylsilyl)oxy]-3,5,10,13,16-pentaoxa-2,4,6-trisilaheptadecane",COC(C)COC(C)COCCC[Si](C)(O[Si](C)(C)C)O[Si](C)(C)O[Si](C)(C)C,-6.2877399393
697,"2,2,4,4,6,6,8,8,10,10,12,12-dodecamethyl-3,5,7,9,11-pentaoxa-2,4,6,8,10,12-hexasilatridecane",C[Si](C)(C)O[Si](C)(C)O[Si](C)(C)O[Si](C)(C)O[Si](C)(C)O[Si](C)(C)C,-5.6618136317
698,"2,2,4,4,6,8,8-heptamethylnonane",CC(CC(C)(C)C)CC(C)(C)CC(C)(C)C,-3.3549684893
699,"2,2,4,4-Tetramethyl-7-oxa-3,20-diazadispiro(5.1.11.2)heneicosan-21-one",CC1(C)CC2(CC(C)(C)N1)OC3(CCCCCCCCCCC3)NC2=O,-5.0846644385
700,"2,2,4,4-tetramethylcyclobutane-1,3-diol",CC1(C)C(O)C(C)(C)C1O,-0.3736775878
701,"2,2,4,6,6-pentamethyl-3,5-dioxa-2,4,6-trisilaheptane",C[Si](O[Si](C)(C)C)O[Si](C)(C)C,-7.0443456956
702,"2,2,4,6,6-pentamethyl-4-[(trimethylsilyl)oxy]-3,5-dioxa-2,4,6-trisilaheptane",C[Si](C)(C)O[Si](C)(O[Si](C)(C)C)O[Si](C)(C)C,-5.9360261722
703,"2,2,4-trimethyl-1-[(2-methylpropanoyl)oxy]pentan-3-yl 2-methylpropanoate",CC(C)C(OC(=O)C(C)C)C(C)(C)COC(=O)C(C)C,-4.3347784238500005
704,"2,2,4-trimethylhexane-1,6-diamine",CC(CCN)CC(C)(C)CN,0.4781562173
705,"2,2,4-trimethylhexanedinitrile; 2,4,4-trimethylhexanedinitrile",CC(CC#N)CC(C)(C)C#N,-1.5746822214
706,"2,2,4-trimethylhexanedioic acid; 2,4,4-trimethylhexanedioic acid",CC(CC(O)=O)CC(C)(C)C(O)=O,-0.2790374966
707,"2,2,4-trimethylpentane-1,3-diol",CC(C)C(O)C(C)(C)CO,-0.6667259262
708,"2,2,5-trimethyl-5-pentylcyclopentanone",CCCCCC1(C)CCC(C)(C)C1=O,-4.0165337106
709,"2,2,6,6-tetramethyl-N-{6-[(2,2,6,6-tetramethylpiperidin-4-yl)amino]hexyl}piperidin-4-amine",CC1(C)CC(CC(C)(C)N1)NCCCCCCNC2CC(C)(C)NC(C)(C)C2,-2.350745656
710,"2,2,6,6-tetramethylpiperidin-4-ol",CC1(C)CC(O)CC(C)(C)N1,-0.1966099864
711,"2,2,6,6-tetramethylpiperidin-4-yl hexadecanoate 2,2,6,6-tetramethylpiperidin-4-yl octadecanoate",CCCCCCCCCCCCCCCCCC(=O)OC1CC(C)(C)NC(C)(C)C1,-7.2145248952
712,"2,2,6-trimethyl-6-vinyltetrahydro-2H-pyran",CC1(C)CCCC(C)(O1)C=C,-2.5359872782
713,"2,2,6-trimethylcyclohexyl propanoate",CCC(=O)OC1C(C)CCCC1(C)C,-3.8031812605
714,"2,2,7,7-tetramethyltricyclo[6.2.1.0¹,?]undecan-5-one",CC1(C)C2CCC3(C2)C1C(=O)CCC3(C)C,-3.9400043591
715,"2,2-bis(bromomethyl)propane-1,3-diol",OCC(CO)(CBr)CBr,-1.1304017512
716,"2,2-bis(hydroxymethyl)butanoic acid",CCC(CO)(CO)C(O)=O,0.5168038544
717,"2,2-bis(hydroxymethyl)propane-1,3-diol",OCC(CO)(CO)CO,-0.3416163866
718,"2,2-bis(hydroxymethyl)propane-1,3-diol; decanoic acid; heptanoic acid; octanoic acid",CCCCCCCCCC(O)=O,-6.6194034302
719,"2,2-bis(hydroxymethyl)propane-1,3-diol; decanoic acid; heptanoic acid; octanoic acid; pentanoic acid",CCCCCCCCCC(O)=O,-7.5346282403
720,"2,2-bis(hydroxymethyl)propane-1,3-diyl didocosanoate",CCCCCCCCCCCCCCCCCCCCCC(=O)OCC(CO)(CO)COC(=O)CCCCCCCCCCCCCCCCCCCCC,-8.3487503358
721,"2,2-bis({[(2-methylprop-2-enoyl)oxy]methyl})butyl 2-methylprop-2-enoate",CCC(COC(=O)C(C)=C)(COC(=O)C(C)=C)COC(=O)C(C)=C,-4.2262342969
722,"2,2-bis[(heptanoyloxy)methyl]butyl heptanoate (non-preferred name)",CCCCCCC(=O)OCC(CC)(COC(=O)CCCCCC)COC(=O)CCCCCC,-6.97376589
723,"2,2-bis[(nonanoyloxy)methyl]butyl nonanoate",CCCCCCCCC(=O)OCC(CC)(COC(=O)CCCCCCCC)COC(=O)CCCCCCCC,-6.8410879515
724,"2,2-bis[(prop-2-en-1-yloxy)methyl]butan-1-ol",CCC(CO)(COCC=C)COCC=C,-1.7182484471
725,"2,2-bis[(prop-2-enoyloxy)methyl]butyl prop-2-enoate",CCC(COC(=O)C=C)(COC(=O)C=C)COC(=O)C=C,-2.772789495
726,"2,2-bis[(sulfanyloxy)methyl]butyl phosphinite 1,5-bis[2-methyl-3-(sulfanyloxy)-2-[(sulfanyloxy)methyl]propyl] pentanedioate",CCC(COP)(COS)COS,-5.8419473099
727,"2,2-dichloro-1-(3-methyl-2,3-dihydro-1,4-benzoxazin-4-yl)ethanone",CC1COc2ccccc2N1C(=O)C(Cl)Cl,-3.8353901487
728,"2,2-difluoro-1,3-benzodioxole-4-carbaldehyde",FC1(F)Oc2cccc(C=O)c2O1,-2.1558333574
729,"2,2-difluoroethanamine",NCC(F)F,0.5299391603333333
730,"2,2-dimethyl-1,3-dihydroperimidine",CC1(C)Nc2cccc3cccc(N1)c23,-2.9298988951
731,"2,2-dimethyl-3-(3-methylphenyl)propan-1-ol",Cc1cccc(CC(C)(C)CO)c1,-2.8265354685
732,"2,2-dimethyl-3-[(9Z)-octadec-9-enoyloxy]propyl (9Z)-octadec-9-enoate",CCCCCCCC\C=C/CCCCCCCC(=O)OCC(C)(C)COC(=O)CCCCCCC\C=C/CCCCCCCC,-7.1024714389
733,"2,2-dimethyl-3-methylidenebicyclo[2.2.1]heptane",CC1(C)C2CCC(C2)C1=C,-4.49129469845
734,"2,2-dimethyl-3-phenylpropan-1-ol",CC(C)(CO)Cc1ccccc1,-2.0423138216
735,"2,2-dimethyl-4-phenylpentanenitrile",CC(CC(C)(C)C#N)c1ccccc1,-3.2350788163
736,"2,2-dimethyloxirane",CC1(C)CO1,-0.0945494336
737,"2,2-dimethylpropane-1,3-diol",CC(C)(CO)CO,0.901422988
738,"2,2-dimethylpropane-1,3-diyl dibenzoate",CC(C)(COC(=O)c1ccccc1)COC(=O)c2ccccc2,-5.431522885900001
739,"2,2-dimethylpropane-1,3-diyl dioctanoate",CCCCCCCC(=O)OCC(C)(C)COC(=O)CCCCCCC,-6.02176786645
740,"2,2-dioctyl-1,3,2-oxathiastannolan-5-one",CCCCCCCC[Sn]1(CCCCCCCC)OC(=O)CS1,-6.4456261549
741,"2,3,3,3-tetrafluoroprop-1-ene",FC(=C)C(F)(F)F,-2.7599573667
742,"2,3,3-trimethyl-3H-indole-5-carboxylic acid",CC1=Nc2ccc(cc2C1(C)C)C(O)=O,-2.6625890537
743,"2,3,4,5,6,7-hexahydro-1H-isoindole-1,3-dione",O=C1NC(=O)C2=C1CCCC2,-1.974517726
744,"2,3,4,5-tetraboratetracyclo[2.1.0.0¹,³.0²,?]pentane",B12B3B4B1C234,-5.885070525
745,"2,3,4-Tris(6-diazo-5,6-dihydro-5-oxo-1-naphthalenesulfonyloxy)benzophenone",[N-]=[N+]=C1C=Cc2c(cccc2[S](=O)(=O)Oc3ccc(C(=O)c4ccccc4)c(O[S](=O)(=O)c5cccc6C(=O)C(C=Cc56)=[N+]=[N-])c3O[S](=O)(=O)c7cccc8C(=O)C(C=Cc78)=[N+]=[N-])C1=O,-6.8208950069
746,"2,3,4-trichlorobut-1-ene",ClCC(Cl)C(Cl)=C,-2.4244542069
747,"2,3,5,6-tetrachloropyridine",Clc1cc(Cl)c(Cl)nc1Cl,-3.9217698805
748,"2,3,5-trimethylbenzene-1,4-diol",Cc1cc(O)c(C)c(C)c1O,-1.6383266335
749,"2,3,5-trimethylphenol",Cc1cc(C)c(C)c(O)c1,-2.2522030039
750,"2,3,6-trimethylphenol",Cc1ccc(C)c(O)c1C,-1.9684668196
751,"2,3-Dihydroxypropyl docosanoate",CCCCCCCCCCCCCCCCCCCCCC(=O)OCC(O)CO,-6.9187336597
752,"2,3-bis(acetyloxy)propyl dodecanoate",CCCCCCCCCCCC(=O)OCC(COC(C)=O)OC(C)=O,-6.3783676144
753,"2,3-bis(nitrooxy)propyl nitrate",[O-][N+](=O)OCC(CO[N+]([O-])=O)O[N+]([O-])=O,-2.1731400641
754,"2,3-dibutyl 1,4,5,6,7,7-hexachlorobicyclo[2.2.1]hept-5-ene-2,3-dicarboxylate",CCCCOC(=O)C1C(C(=O)OCCCC)C2(Cl)C(=C(Cl)C1(Cl)C2(Cl)Cl)Cl,-7.5095589026
755,"2,3-dichloro-1,4-naphthoquinone",ClC1=C(Cl)C(=O)c2ccccc2C1=O,-5.023776406
756,"2,3-dichloroaniline",Nc1cccc(Cl)c1Cl,-2.1303847013
757,"2,3-dichlorobenzoic acid",OC(=O)c1cccc(Cl)c1Cl,-2.3316729189
758,"2,3-dihydro-1,2-benzothiazol-3-one",O=C1NSc2ccccc12,-1.9490506976133333
759,"2,3-dihydro-1H-isoindole-1,3-dione",O=C1NC(=O)c2ccccc12,-3.10545797775
760,"2,3-dihydroxypropyl 12-hydroxyoctadecanoate",CCCCCCC(O)CCCCCCCCCCC(=O)OCC(O)CO,-3.3974324562
761,"2,3-dihydroxypropyl dodecanoate",CCCCCCCCCCCC(=O)OCC(O)CO,-5.4383856897
762,"2,3-dihydroxypropyl laurate",CCCCCCCCCCCC(=O)OCC(O)CO,-4.6602344394
763,"2,3-dihydroxypropyl tetradecanoate",CCCCCCCCCCCCCC(=O)OCC(O)CO,-7.3978753981
764,"2,3-dimethyloxirane",CC1OC1C,0.3972950779
765,"2,3-dimethylpentane; 2-methylpentane; 3-methylhexane; 3-methylpentane",CCCC(C)C,-3.47238266468
766,"2,3-dimethylphenol",Cc1cccc(O)c1C,-1.4479317152333333
767,"2,3-dimethylphenol; 2,4-dimethylphenol; 2,5-dimethylphenol; 2,6-dimethylphenol; 3,4-dimethylphenol; 3,5-dimethylphenol",Cc1ccc(O)c(C)c1,-2.0766481644
768,"2,4,4,7-tetramethyloct-6-en-3-one",CC(C)C(=O)C(C)(C)CC=C(C)C,-3.4892158636
769,"2,4,4-trimethylpent-1-ene",CC(=C)CC(C)(C)C,-4.688326948
770,"2,4,4-trimethylpentan-2-yl 2,2,3,5-tetramethylhexaneperoxoate 2,4,4-trimethylpentan-2-yl 2,2-diethylhexaneperoxoate 2,4,4-trimethylpentan-2-yl 2,2-dimethyloctaneperoxoate 2,4,4-trimethylpentan-2-yl 2,4-dimethyl-2-(propan-2-yl)pentaneperoxoate 2,4,4-trimethylpentan-2-yl 2-ethyl-2,5-dimethylhexaneperoxoate",CC(C)(C)CCCCC1(OO1)C(=O)OC(C)(C)CC(C)(C)C,-6.9712344191
771,"2,4,5-trichloroaniline",Nc1cc(Cl)c(Cl)cc1Cl,-3.4359504856
772,"2,4,6,8,10-pentamethyl-1,3,5,7,9,2,4,6,8,10-pentaoxapentasilecane",C[Si]1O[Si](C)O[Si](C)O[Si](C)O[Si](C)O1,0.5292955703
773,"2,4,6-tri-tert-butylphenol",CC(C)(C)c1cc(c(O)c(c1)C(C)(C)C)C(C)(C)C,-6.6196845151
774,"2,4,6-tribromophenol",Oc1c(Br)cc(Br)cc1Br,-2.5332430367
775,"2,4,6-trichloro-1,3,5-triazine",Clc1nc(Cl)nc(Cl)n1,-2.67960684455
776,"2,4,6-trichloroaniline",Nc1c(Cl)cc(Cl)cc1Cl,-3.6902203216
777,"2,4,6-trimethylbenzene-1,3-diamine",Cc1cc(C)c(N)c(C)c1N,-0.8207163555
778,"2,4,6-trimethylcyclohex-3-ene-1-carbaldehyde",CC1CC(=CC(C)C1C=O)C,-1.8440637235
779,"2,4,6-tris(butan-2-yl)phenol",CCC(C)c1cc(C(C)CC)c(O)c(c1)C(C)CC,-6.134924202500001
780,"2,4,6-tris[(dimethylamino)methyl]phenol",CN(C)Cc1cc(CN(C)C)c(O)c(CN(C)C)c1,0.5055163708
781,"2,4,7,9-tetramethyldec-5-yne-4,7-diol",CC(C)CC(C)(O)C#CC(C)(O)CC(C)C,-2.1243507639
782,"2,4-bis(2-methylbutan-2-yl)phenol",CCC(C)(C)c1ccc(O)c(c1)C(C)(C)CC,-4.892804854