,Name,SMILES,Solubility
2139,N-(3-methylphenyl)-4-{4-[(3-methylphenyl)(phenyl)amino]phenyl}-N-phenylaniline,Cc1cccc(c1)N(c2ccccc2)c3ccc(cc3)c4ccc(cc4)N(c5ccccc5)c6cccc(C)c6,-6.4121983796
2140,N-(4-acetamidophenyl)-3-hydroxy-2-naphthamide,CC(=O)Nc1ccc(NC(=O)c2cc3ccccc3cc2O)cc1,-5.2503495118
2141,N-(4-acetamidophenyl)-4-[(5-carbamoyl-2-chlorophenyl)diazenyl]-3-hydroxy-2-naphthamide,CC(=O)Nc1ccc(NC(=O)C2=Cc3ccccc3C(=N/Nc4cc(ccc4Cl)C(N)=O)/C2=O)cc1,-7.3044438068
2142,"N-(4-amino-2,5-diethoxyphenyl)benzamide",CCOc1cc(NC(=O)c2ccccc2)c(OCC)cc1N,-2.4057571965
2143,"N-(4-amino-3-methoxy-9,10-dioxo-9,10-dihydroanthracen-1-yl)-4-methylbenzene-1-sulfonamide",COc1cc(N[S](=O)(=O)c2ccc(C)cc2)c3C(=O)c4ccccc4C(=O)c3c1N,-7.1667619924
2144,"N-(4-amino-3-methoxy-9,10-dioxo-9,10-dihydroanthracen-1-yl)benzenesulfonamide",COc1cc(N[S](=O)(=O)c2ccccc2)c3C(=O)c4ccccc4C(=O)c3c1N,-2.3558504459
2145,"N-(4-carbamoylphenyl)-4-[(E)-2-{2-oxo-1-[(2-oxo-2,3-dihydro-1H-1,3-benzodiazol-5-yl)carbamoyl]propyl}diazen-1-yl]benzamide",CC(=O)C(N=Nc1ccc(cc1)C(=O)Nc2ccc(cc2)C(N)=O)C(=O)Nc3ccc4NC(=O)Nc4c3,-6.6728088056
2146,N-(4-carbamoylphenyl)-4-methoxy-3-nitrobenzamide,COc1ccc(cc1[N+]([O-])=O)C(=O)Nc2ccc(cc2)C(N)=O,-4.6536052692
2147,N-(4-carbamoylphenyl)-4-nitrobenzamide,NC(=O)c1ccc(NC(=O)c2ccc(cc2)[N+]([O-])=O)cc1,-4.9367254155
2148,"N-(4-chloro-2,5-dimethoxyphenyl)-2-[(E)-2-(2-chloro-4-{3-chloro-4-[(E)-2-{1-[(4-chloro-2,5-dimethoxyphenyl)carbamoyl]-2-oxopropyl}diazen-1-yl]phenyl}phenyl)diazen-1-yl]-3-oxobutanamide",COc1cc(NC(=O)C(N=Nc2ccc(cc2Cl)c3ccc(N=NC(C(C)=O)C(=O)Nc4cc(OC)c(Cl)cc4OC)c(Cl)c3)C(C)=O)c(OC)cc1Cl,-8.0045326037
2149,"N-(4-chloro-2,5-dimethoxyphenyl)-3-hydroxy-4-[(E)-2-[2-methoxy-5-(phenylcarbamoyl)phenyl]diazen-1-yl]naphthalene-2-carboxamide",COc1ccc(cc1N\N=C2/C(=O)C(=Cc3ccccc23)C(=O)Nc4cc(OC)c(Cl)cc4OC)C(=O)Nc5ccccc5,-7.8465603387
2150,"N-(4-chloro-2,5-dimethoxyphenyl)-3-oxobutanamide",COc1cc(NC(=O)CC(C)=O)c(OC)cc1Cl,-2.9792447784
2151,N-(4-chlorophenyl)-2-[(4-methyl-2-nitrophenyl)diazenyl]-3-oxobutanamide,CC(=O)C(N=Nc1ccc(C)cc1[N+]([O-])=O)C(=O)Nc2ccc(Cl)cc2,-7.6052980935
2152,N-(4-chlorophenyl)-3-hydroxy-2-naphthamide,Oc1cc2ccccc2cc1C(=O)Nc3ccc(Cl)cc3,-5.4738386427
2153,N-(4-ethoxyphenyl)-3-hydroxy-2-naphthamide,CCOc1ccc(NC(=O)c2cc3ccccc3cc2O)cc1,-5.3115405454
2154,N-(4-fluorophenyl)-2-hydroxy-N-propan-2-ylacetamide,CC(C)N(C(=O)CO)c1ccc(F)cc1,-1.1786398993
2155,N-(4-hydroxyphenyl)acetamide,CC(=O)Nc1ccc(O)cc1,-1.0333232127
2156,N-(4-methoxyphenyl)-3-oxobutanamide,COc1ccc(NC(=O)CC(C)=O)cc1,-1.9014771833
2157,"N-(5-chloro-2,4-dimethoxyphenyl)-3-hydroxy-2-naphthamide",COc1cc(OC)c(NC(=O)c2cc3ccccc3cc2O)cc1Cl,-5.3775405806
2158,"N-(5-chloro-2,4-dimethoxyphenyl)-4-[(E)-2-[5-(diethylsulfamoyl)-2-methoxyphenyl]diazen-1-yl]-3-hydroxynaphthalene-2-carboxamide",CCN(CC)[S](=O)(=O)c1ccc(OC)c(N\N=C2\C(=O)C(=Cc3ccccc23)C(=O)Nc4cc(Cl)c(OC)cc4OC)c1,-7.9052553562
2159,N-(5-chloro-2-methoxyphenyl)-3-hydroxy-4-[(E)-2-[2-methoxy-5-(phenylcarbamoyl)phenyl]diazen-1-yl]naphthalene-2-carboxamide,COc1ccc(cc1N\N=C2/C(=O)C(=Cc3ccccc23)C(=O)Nc4cc(Cl)ccc4OC)C(=O)Nc5ccccc5,-8.1844134651
2160,N-(5-chloro-2-methylphenyl)-3-hydroxy-4-[(E)-2-[2-methoxy-5-(phenylcarbamoyl)phenyl]diazen-1-yl]naphthalene-2-carboxamide,COc1ccc(cc1N\N=C2/C(=O)C(=Cc3ccccc23)C(=O)Nc4cc(Cl)ccc4C)C(=O)Nc5ccccc5,-7.7520707385
2161,N-(5-chloro-2-methylphenyl)-3-hydroxynaphthalene-2-carboxamide,Cc1ccc(Cl)cc1NC(=O)c2cc3ccccc3cc2O,-5.2385590319
2162,"N-(6-amino-1,3-dimethyl-2,4-dioxo-1,2,3,4-tetrahydropyrimidin-5-yl)formamide",CN1C(=C(NC=O)C(=O)N(C)C1=O)N,-1.1831208546
2163,N-(butoxymethyl)prop-2-enamide,CCCCOCNC(=O)C=C,-0.6536630282
2164,"N-(carboxymethyl)-3-(dodecanoylamino)-N,N-dimethylpropan-1-aminium hydroxide",CCCCCCCCCCCC(=O)NCCC[N+](C)(C)CC([O-])=O,-3.1367509984
2165,N-(methoxymethyl)-2-methylprop-2-enamide,COCNC(=O)C(C)=C,0.7919653131
2166,N-(prop-2-enamidomethyl)prop-2-enamide,C=CC(=O)NCNC(=O)C=C,-0.6552426764
2167,N-Butylphosphorothioic triamide,CCCCN[P](N)(N)=S,-1.18142424285
2168,"N-[(1,1,3,3-tetramethylbutyl)phenyl]naphthalen-1-amine",CC(C)(C)CC(C)(C)N(c1ccccc1)c2cccc3ccccc23,-8.2900385416
2169,"N-[(8E)-1,5-dimethylbicyclo[3.2.1]octan-8-ylidene]hydroxylamine",CC12CCCC(C)(CC1)C2=NO,-3.0741522071
2170,"N-[2-(2-heptadecyl-4,5-dihydro-1H-imidazol-1-yl)ethyl]octadecanamide; N-{2-[(2-octadecanamidoethyl)amino]ethyl}octadecanamide; bis(acetic acid)",CCCCCCCCCCCCCCCCCC(=O)NCCNCCNC(=O)CCCCCCCCCCCCCCCCC,-7.1380824945
2171,"N-[3-(8-methylnonoxy)propyl]propane-1,3-diamine",CC(C)CCCCCCCOCCCNCCCN,-3.2048809276
2172,N-[3-(diethylamino)phenyl]acetamide,CCN(CC)c1cccc(NC(C)=O)c1,-2.4693780306
2173,N-[3-(dimethylamino)propyl]docosanamide,CCCCCCCCCCCCCCCCCCCCCC(=O)NCCCN(C)C,-5.6510203125
2174,N-[3-(dimethylamino)propyl]formamide,CN(C)CCCNC=O,0.8854190372
2175,N-[3-(dimethylamino)propyl]octadec-9-enamide,CCCCCCCC/C=C/CCCCCCCC(=O)NCCCN(C)C,-2.4638621919
2176,N-[3-(dimethylamino)propyl]octadecanamide,CCCCCCCCCCCCCCCCCC(=O)NCCCN(C)C,-3.8954028978
2177,N-[3-(morpholin-4-yl)propyl]naphthalen-1-amine,C(CNc1cccc2ccccc12)CN3CCOCC3,-2.702803349
2178,N-acetyl-N-[2-(N-acetylacetamido)ethyl]acetamide,CC(=O)N(CCN(C(C)=O)C(C)=O)C(C)=O,-0.8188163577499998
2179,N-benzyl-2-acetamido-3-methoxypropanamide,COCC(NC(C)=O)C(=O)NCc1ccccc1,-3.3984573794
2180,"N-butyl-2,2,6,6-tetramethylpiperidin-4-amine",CCCCNC1CC(C)(C)NC(C)(C)C1,0.5746150304
2181,N-butylbenzenesulfonamide,CCCCN[S](=O)(=O)c1ccccc1,-3.2202924403999997
2182,N-butylbutan-1-amine,CCCCNCCCC,-1.5178011614
2183,"N-cyclohexyl-3-[(4-{[3-(cyclohexylsulfamoyl)-2,4,6-trimethylphenyl]amino}-9,10-dioxo-9,10-dihydroanthracen-1-yl)amino]-2,4,6-trimethylbenzene-1-sulfonamide",Cc1cc(C)c(c(C)c1Nc2ccc(Nc3c(C)cc(C)c(c3C)[S](=O)(=O)NC4CCCCC4)c5C(=O)c6ccccc6C(=O)c25)[S](=O)(=O)NC7CCCCC7,-4.8187034651
2184,N-dodecanoyl-N-methylglycine,CCCCCCCCCCCC(=O)N(C)CC(O)=O,-2.7346414392
2185,N-ethyl(propan-2-yloxy)carbothioamide,CCNC(=S)OC(C)C,-1.7320888743666665
2186,"N-ethyl-4'-{[4-(ethylamino)-2-methylphenyl][4-(ethylimino)-3-methylcyclohexa-2,5-dien-1-ylidene]methyl}-3-methylbiphenyl-2-amine acetate",CCNc1ccc(cc1C)C(c2ccc(NCC)c(C)c2)=C3C=CC(=NCC)C(=C3)C,-1.0232212865
2187,"N-ethyl-N'-isopropyl-6-(methylsulfanyl)-1,3,5-triazine-2,4-diamine",CCNc1nc(NC(C)C)nc(SC)n1,-3.0613383573
2188,N-ethyl-N-{2-[1-(2-methylpropoxy)ethoxy]ethyl}-4-[(E)-2-phenyldiazen-1-yl]aniline,CCN(CCOC(C)OCC(C)C)c1ccc(cc1)N=Nc2ccccc2,-7.0905037661
2189,N-ethylaniline,CCNc1ccccc1,-1.6767512963
2190,N-ethylethanamine,CCNCC,1.1358509819
2191,N-isopropyl-2-methylacrylamide,CC(C)NC(=O)C(C)=C,-0.6201428843
2192,N-methyl-N-phenylformamide,CN(C=O)c1ccccc1,-1.4947809467
2193,N-methyl-N-phenyl{[methyl(phenyl)carbamothioyl]disulfanyl}carbothioamide,CN(C(=S)SSC(=S)N(C)c1ccccc1)c2ccccc2,-8.41128499005
2194,N-methylacetamide,CNC(C)=O,1.1361123296
2195,N-methylcyclohexanamine,CNC1CCCCC1,-0.3214680129
2196,N-methylformamide,CNC=O,1.2286477338
2197,N-methylhydrazinecarbothioamide,CNC(=S)NN,-1.94161107885
2198,"N-methylmethanaminium (2,4-dichlorophenoxy)acetate",CNC,0.4499772209
2199,N-octadecyloctadecanamide,CCCCCCCCCCCCCCCCCCNC(=O)CCCCCCCCCCCCCCCCC,-7.261446605633334
2200,N-phenyl-N-(piperidin-4-yl)propanamide,CCC(=O)N(C1CC[NH2+]CC1)c2ccccc2,-0.8352255084
2201,N-phenylaniline,N(c1ccccc1)c2ccccc2,-3.81196389485
2202,"N-phenylaniline; 2,4,4-trimethylpent-1-ene",CC(=C)CC(C)(C)C,-5.1664665421
2203,N-phenylaniline; formaldehyde; propan-2-one,CC(C)=O,-5.969586401
2204,N-phenylnaphthalen-1-amine,N(c1ccccc1)c2cccc3ccccc23,-4.8638916314
2205,N-phenylnaphthalen-2-amine,N(c1ccccc1)c2ccc3ccccc3c2,-5.4959148461
2206,N-propylpropan-1-amine,CCCNCCC,-0.461082427
2207,N-{2-[(2-benzamidophenyl)disulfanyl]phenyl}benzamide,O=C(Nc1ccccc1SSc2ccccc2NC(=O)c3ccccc3)c4ccccc4,-5.8673626857
2208,"N-{2-[(2-cyano-4,6-dinitrophenyl)diazenyl]-5-(diethylamino)phenyl}acetamide",CCN(CC)c1ccc(N=Nc2c(cc(cc2[N+]([O-])=O)[N+]([O-])=O)C#N)c(NC(C)=O)c1,-6.3277725944
2209,"N-{2-[(E)-2-(2,6-dicyano-4-methylphenyl)diazen-1-yl]-5-(diethylamino)phenyl}methanesulfonamide",CCN(CC)c1ccc(N=Nc2c(cc(C)cc2C#N)C#N)c(N[S](C)(=O)=O)c1,-7.2331050936
2210,"N-{2-[(E)-2-(2,6-dicyano-4-nitrophenyl)diazen-1-yl]-5-(diethylamino)phenyl}acetamide",CCN(CC)c1ccc(N=Nc2c(cc(cc2C#N)[N+]([O-])=O)C#N)c(NC(C)=O)c1,-8.1027530485
2211,"N-{2-[(E)-2-(2-bromo-4,6-dinitrophenyl)diazen-1-yl]-5-(diethylamino)phenyl}acetamide",CCN(CC)c1ccc(N=Nc2c(Br)cc(cc2[N+]([O-])=O)[N+]([O-])=O)c(NC(C)=O)c1,-7.3795692783
2212,"N-{2-[(E)-2-(2-chloro-4,6-dinitrophenyl)diazen-1-yl]-5-(diethylamino)-4-methoxyphenyl}acetamide",CCN(CC)c1cc(NC(C)=O)c(cc1OC)N=Nc2c(Cl)cc(cc2[N+]([O-])=O)[N+]([O-])=O,-4.6673277833
2213,"N-{2-[(E)-2-(2-chloro-4,6-dinitrophenyl)diazen-1-yl]-5-(diethylamino)phenyl}acetamide",CCN(CC)c1ccc(N=Nc2c(Cl)cc(cc2[N+]([O-])=O)[N+]([O-])=O)c(NC(C)=O)c1,-7.1158852536
2214,N-{4-[(2-hydroxyethyl)sulfonyl]phenyl}acetamide,CC(=O)Nc1ccc(cc1)[S](=O)(=O)CCO,-2.3069323017
2215,"N-{5-[bis(prop-2-en-1-yl)amino]-2-[(E)-2-(2-bromo-4,6-dinitrophenyl)diazen-1-yl]-4-methoxyphenyl}acetamide",COc1cc(N=Nc2c(Br)cc(cc2[N+]([O-])=O)[N+]([O-])=O)c(NC(C)=O)cc1N(CC=C)CC=C,-7.0093328393
2216,"N-{5-[bis(prop-2-en-1-yl)amino]-2-[(E)-2-(2-chloro-4,6-dinitrophenyl)diazen-1-yl]-4-methoxyphenyl}acetamide",COc1cc(N=Nc2c(Cl)cc(cc2[N+]([O-])=O)[N+]([O-])=O)c(NC(C)=O)cc1N(CC=C)CC=C,-4.3881793818
2217,Naphthalic anhydride,O=C1OC(=O)c2cccc3cccc1c23,-6.2970532498
2218,Naphthalimide,O=C1NC(=O)c2cccc3cccc1c23,-4.6928315029
2219,Neohesperidin dihydrochalone,COc1ccc(CCC(=O)c2c(O)cc(O[C@@H]3O[C@H](CO)[C@@H](O)[C@H](O)[C@H]3O[C@@H]4O[C@@H](C)[C@H](O)[C@@H](O)[C@H]4O)cc2O)cc1O,-3.1851035311
2220,Neomenthol,CC(C)[C@H]1CC[C@@H](C)CC1O,-2.8302608531
2221,Nonadecanoic acid,CCCCCCCCCCCCCCCCCCC(O)=O,-3.775990335
2222,"Nonylphenol, ethoxylated",CCCCCCCCCc1ccc(OCCOCCO)cc1,-0.3045102393
2223,"N~2~-(4,6-diamino-1,3,5-triazin-2-yl)-1,3,5-triazine-2,4,6-triamine",Nc1nc(N)nc(Nc2nc(N)nc(N)n2)n1,-4.140630692899999
2224,"O,O,O-Triphenyl phosphorothioate",S=[P](Oc1ccccc1)(Oc2ccccc2)Oc3ccccc3,-6.9546943469
2225,"O,O,O-tris(4-nitrophenyl) thiophosphate",[O-][N+](=O)c1ccc(O[P](=S)(Oc2ccc(cc2)[N+]([O-])=O)Oc3ccc(cc3)[N+]([O-])=O)cc1,-5.6788341975
2226,"O,O,S-tris(4-aminophenyl) thiophosphate",Nc1ccc(O[P](=S)(Oc2ccc(N)cc2)Oc3ccc(N)cc3)cc1,-5.3094071365
2227,"O,O-bis(2-methylphenyl) hydrogen dithiophosphate",Cc1ccccc1O[P](S)(=S)Oc2ccccc2C,-1.0605299646
2228,"O,O-diisopropyl hydrogen dithiophosphate",CC(C)O[P](S)(=S)OC(C)C,-0.5528547078
2229,O-(4-bromo-2-chlorophenyl) O-ethyl S-propyl thiophosphate,CCCS[P](=O)(OCC)Oc1ccc(Br)cc1Cl,-4.245456760350001
2230,"O1-nonyl O2-octyl benzene-1,2-dicarboxylate",CCCCCCCCCOC(=O)c1ccccc1C(=O)OCCCCCCCC,-4.7809414151
2231,"Octadecan-1-ol, ethoxylated",CCCCCCCCCCCCCCCCCCOCC[O],-6.4963012647
2232,"Octanoic acid, ester with 1,2,3-propanetriol",CCCCCCCC(O)=O,-3.2000007811
2233,O~15~-acetylretinoic acid,CC(=O)OC/C=C(C)/C=C/C=C(C)/C=C/C1=C(C)CCCC1(C)C,-7.5165300857
2234,O~15~-propionylretinoic acid,CCC(=O)OC/C=C(C)/C=C/C=C(C)/C=C/C1=C(C)CCCC1(C)C,-7.5346897392
2235,"PROPANE-1,2,3-TRIOL",OCC(O)CO,0.776131353
2236,"Paraffin waxes and Hydrocarbon waxes, chloro",CCCC(Cl)CCCC(Cl)CCC(Cl)CCC(Cl)CCC(Cl)CCCC(Cl)CCC,-7.9735405917
2237,Patchoulialcohol,C[C@H]1CCC2(O)C(C)(C)C3CC[C@@]2(C)C1C3,-3.7259038203
2238,"Phenol, 4-methyl-, reaction products with dicyclopentadiene and isobutylene",CC(C)=C,-6.82144231675
2239,"Phenol, styrenated",Oc1ccc(C=C)cc1C=C,-4.7794886895
2240,Pigment Red 224,O=C1OC(=O)c2ccc3c4ccc5C(=O)OC(=O)c6ccc(c7ccc1c2c37)c4c56,-5.5936426625
2241,Pigment red 149,Cc1cc(C)cc(c1)N2C(=O)c3ccc4c5ccc6C(=O)N(c7cc(C)cc(C)c7)C(=O)c8ccc(c9ccc(C2=O)c3c49)c5c68,-7.4761487948
2242,Pigment red 178,O=C1N(c2ccc(cc2)N=Nc3ccccc3)C(=O)c4ccc5c6ccc7C(=O)N(c8ccc(cc8)N=Nc9ccccc9)C(=O)c%10ccc(c%11ccc1c4c5%11)c6c7%10,-7.8755092242
2243,Prednisolone,C[C@]12C[C@H](O)[C@H]3[C@@H](CCC4=CC(=O)C=C[C@]34C)[C@@H]1CC[C@]2(O)C(=O)CO,-3.1784471289
2244,Prokan,CC(=O)OC1(CCC2C3CCC4=CC(=O)CCC4(C)C3CCC12C)C(C)=O,-5.5668107327
2245,"Propylidynetrimethanol, ethoxylated, esters with acrylic acid",CCC(COCCOC(=O)C=C)(COCCOC(=O)C=C)COCCOC(=O)C=C,-2.687445856
2246,Pyromellitic dianhydride,O=C1OC(=O)c2cc3C(=O)OC(=O)c3cc12,-1.4062217243
2247,S-ethyl dipropylthiocarbamate,CCCN(CCC)C(=O)SCC,-2.72191081645
2248,Solvent orange 60,O=C1N2c3cccc4cccc(N=C2c5ccccc15)c34,-7.255740326
2249,Solvent red 135,Clc1c(Cl)c(Cl)c2C3=Nc4cccc5cccc(N3C(=O)c2c1Cl)c45,-7.1336144776
2250,"Sorbitan monolaurate, ethoxylated",CCCCCCCCCCCC(=O)OCCOCC(OCCO)C1OCC(OCCO)C1OCCO,-6.4172025632
2251,Spironolactone intermediate,C[C@]12CCC(=O)C=C1CC[C@@H]3[C@@H]2CC[C@@]4(C)[C@H]3CC[C@@]45CCC(=O)O5,-4.2250037793
2252,Sulfolane,O=[S]1(=O)CCCC1,-0.079806903
2253,Tazobactam,C[C@]1(Cn2ccnn2)[C@@H](N3[C@@H](CC3=O)[S]1(=O)=O)C(O)=O,-1.8384616763
2254,"Terphenyl, hydrogenated",C1CC=CC(C1)c2ccc(cc2)C3CCC=CC3,-6.5330489731500005
2255,Tetra(10B)boron carbide,B12B3B4B1C234,-4.7424030214
2256,Tricyclodecanyl acetate,CC(=O)OC1CC2CC1C3CCCC23,-3.3380498278
2257,Tricyclodecenyl propionate,CCC(=O)OC1C=CC2C3CCC(C3)C12,-3.5585927938
2258,Vat Orange 11,O=C1c2ccccc2C(=O)c3c4[nH]c5c(ccc6C(=O)c7c8[nH]c9c(ccc%10C(=O)c%11ccccc%11C(=O)c9%10)c8ccc7C(=O)c56)c4ccc13,-8.8106451034
2259,Vat brown 3,O=C(Nc1cccc2C(=O)c3c4[nH]c5c(cc(NC(=O)c6ccccc6)c7C(=O)c8ccccc8C(=O)c57)c4ccc3C(=O)c12)c9ccccc9,-5.647161854
2260,Vat green 1,COc1cc2c3ccccc3C(=O)c4ccc5c6ccc7C(=O)c8ccccc8c9cc(OC)c(c1c5c24)c6c79,-5.5991706951
2261,Vertofix,CC1CCC2C(C)(C)C3CC12CC(=C3C)C(C)=O,-4.6134788776
2262,Violanthrone,O=C1c2ccccc2c3ccc4c5ccc6c7ccccc7C(=O)c8ccc(c9ccc1c3c49)c5c68,-5.5133127462
2263,[(1E)-2-(diethoxymethyl)hept-1-en-1-yl]benzene,CCCCC\C(=C/c1ccccc1)C(OCC)OCC,-5.1720565184
2264,[(1S)-3-(4-methylpent-3-enyl)-1-cyclohex-3-enyl]methyl acetate,CC(=O)OC[C@H]1CCC=C(CCC=C(C)C)C1,-4.9756247854
2265,"[(1S,2R,5S)-5-methyl-2-propan-2-ylcyclohexyl] acetate",CC(C)[C@H]1CC[C@H](C)C[C@@H]1OC(C)=O,-4.0668869332
2266,"[(1S,2S,3S,5R)-2,6,6-trimethylbicyclo[3.1.1]heptan-3-yl]methanamine",C[C@@H]1[C@@H](CN)C[C@H]2C[C@@H]1C2(C)C,-1.83010984615
2267,[(2-chlorophenyl)methyl]dimethylamine,CN(C)Cc1ccccc1Cl,-0.9927502000499999
2268,[(2-ethylhexyl)oxy]phosphonic acid,CCCCC(CC)CO,-2.9108177672499997
2269,"[(2R,3R)-5,7-dihydroxy-2-(3,4,5-trihydroxyphenyl)chroman-3-yl] 3,4,5-trihydroxybenzoate",Oc1cc(O)c2C[C@@H](OC(=O)c3cc(O)c(O)c(O)c3)[C@H](Oc2c1)c4cc(O)c(O)c(O)c4,-1.0591609316
2270,"[(2R,3R,4S,5R,6R)-3,4,5,6-tetrakis(acetyloxy)oxan-2-yl]methyl acetate",CC(=O)OCC1OC(OC(C)=O)C(OC(C)=O)C(OC(C)=O)C1OC(C)=O,-2.4153529113
2271,"[(2S,4R)-2-(2,4-dichlorophenyl)-2-(1H-1,2,4-triazol-1-ylmethyl)-1,3-dioxolan-4-yl]methanol",OC[C@@H]1CO[C@](Cn2cncn2)(O1)c3ccc(Cl)cc3Cl,-2.9059550684
2272,[(benzyloxy)methyl]benzene,C(OCc1ccccc1)c2ccccc2,-3.6704002069
2273,[(bis{6-[bis(phosphonomethyl)amino]hexyl}amino)methyl]phosphonic acid,O[P](O)(=O)CN(CCCCCCN(C[P](O)(O)=O)C[P](O)(O)=O)CCCCCCN(C[P](O)(O)=O)C[P](O)(O)=O,-0.09167824625
2274,"[1,3(or 1,4)-phenylenebis(1-methylethylidene)]bis[tert-butyl] peroxide",CC(C)(C)OOC(C)(C)c1ccc(cc1)C(C)(C)OOC(C)(C)C,-6.3323174364
2275,"[1,3,8,16,18,24-hexabromo-2,4,9,10,11,15,17,22,23,25-decachloro-29H,31H-phthalocyaninato(2-)-N29,N30,N31,N32]copper",Clc1c(Cl)c(Br)c2C3=NC(=Nc4n5[Cu]N6C(=N3)c7c(Cl)c(Br)c(Cl)c(Br)c7C6=NC8=NC(=Nc5c9c(Br)c(Cl)c(Br)c(Cl)c49)c%10c(Cl)c(Cl)c(Br)c(Cl)c8%10)c2c1Cl,-9.1442341106
2276,[1-(carbamoylamino)-2-methylpropyl]urea,CC(C)C(NC(N)=O)NC(N)=O,-2.28681561345
2277,"[2,2-bis(2-ethylhexanoyloxymethyl)-3-[2-(2-ethylhexanoyloxymethyl)-3-(7-methyloctanoyloxy)-2-(7-methyloctanoyloxymethyl)propoxy]propyl] 7-methyloctanoate",CCCCC(CC)C(=O)OCC(COCC(COC(=O)CCCCCC(C)C)(COC(=O)C(CC)CCCC)COC(=O)C(CC)CCCC)(COC(=O)CCCCCC(C)C)COC(=O)CCCCCC(C)C,-7.323686796
2278,[2-(1-propoxyethoxy)ethyl]benzene,CCCOC(C)OCCc1ccccc1,-3.3841929036
2279,[2-(3-methylbutoxy)ethyl]benzene,CC(C)CCOCCc1ccccc1,-3.9337357827
2280,[2-(4-aminobenzenesulfonyl)ethoxy]sulfonic acid,Nc1ccc(cc1)[S](=O)(=O)CCO[S](O)(=O)=O,-1.9051186702
2281,[2-(cyclohexyloxy)ethyl]benzene,C1CCC(CC1)OCCc2ccccc2,-2.4180900548
2282,[2-(tert-butylperoxy)propan-2-yl]benzene,CC(C)(C)OOC(C)(C)c1ccccc1,-4.2909341502
2283,"[2-[2-oxo-5-(2,4,4-trimethylpentan-2-yl)-3H-1-benzofuran-3-yl]-4-(2,4,4-trimethylpentan-2-yl)phenyl] acetate",CC(=O)Oc1ccc(cc1C2C(=O)Oc3ccc(cc23)C(C)(C)CC(C)(C)C)C(C)(C)CC(C)(C)C,-6.6925825623
2284,[2-[[4-[(2-chloro-4-nitrophenyl)azo]phenyl]ethylamino]ethyl](2-hydroxypropyl)dimethylammonium acetate,CCN(CC[N+](C)(C)CC(C)O)c1ccc(cc1)N=Nc2ccc(cc2Cl)[N+]([O-])=O,-0.5731459846
2285,"[2-butyl-4-chloro-1-({4-[2-(2H-1,2,3,4-tetrazol-5-yl)phenyl]phenyl}methyl)-1H-imidazol-5-yl]methanol",CCCCc1nc(Cl)c(CO)n1Cc2ccc(cc2)c3ccccc3c4n[nH]nn4,-4.9450169862
2286,"[2-methyl-2-(2-methylpropyl)-1,3-dioxolan-4-yl]methanol",CC(C)CC1(C)OCC(CO)O1,-0.7059803773
2287,"[3-methyl-4-(2,2,2-trifluoroethoxy)pyridin-2-yl]methanol",Cc1c(CO)nccc1OCC(F)(F)F,-1.7920737105
2288,[4-(aminomethyl)phenyl]methanamine,NCc1ccc(CN)cc1,1.1750718055
2289,"[4-[(4-diethylaminophenyl)-phenylmethylidene]-1-cyclohexa-2,5-dienylidene]-diethylazanium; hydrogen sulfate",CCN(CC)c1ccc(cc1)[C+](c2ccccc2)c3ccc(cc3)N(CC)CC,-2.0572883439
2290,"[9-methyl-6-(propan-2-yl)-1,4-dioxaspiro[4.5]decan-2-yl]methanol",CC(C)C1CCC(C)CC12OCC(CO)O2,-2.2793855347
2291,[disulfanediylbis(carbonothioylnitrilo)]tetramethane,CN(C)C(=S)SSC(=S)N(C)C,-4.1321069774999994
2292,"[phenyl(2,4,6-trimethylbenzoyl)phosphoryl](2,4,6-trimethylphenyl)methanone",Cc1cc(C)c(c(C)c1)C(=O)[P](=O)(C(=O)c2c(C)cc(C)cc2C)c3ccccc3,-6.6216674424
2293,[tris(isopropenyloxy)vinyl]silane,CC(=C)O[Si](OC(C)=C)(OC(C)=C)C=C,0.6452233386
2294,acetaldehyde oxime,C/C=N/O,0.4958194622
2295,acetic acid,CC(O)=O,1.0017178079
2296,acetonitrile,CC#N,1.3866551008
2297,acetyl chloride,OC(=O)CCl,-0.24635836023333332
2298,acetylene,C#C,-1.3364263766
2299,"acid D,L-aspart",NC(CC(O)=O)C(O)=O,-1.2293181874
2300,acrylic acid,OC(=O)C=C,0.0059673299
2301,adamantan-1-amine,NC12CC3CC(CC(C3)C1)C2,-2.2001833012
2302,amino(imino)methanaminium nitrate,NC(N)=N,0.0102512628
2303,amino(imino)methanaminium; cyanosulfanide,NC(N)=N,1.070648915125
2304,amino(phenyl)acetic acid,[NH3+][C@@H](C([O-])=O)c1ccccc1,-1.5082784057
2305,aminocaproic acid,NCCCCCC(O)=O,0.6511937577
2306,aminoformonitrile,NC#N,1.1681782568333334
2307,aminothiourea,NNC(N)=S,-0.90273258295
2308,"androsta-1,4-diene-3,17-dione",CC12CCC3C(CCC4=CC(=O)C=CC34C)C1CCC2=O,-2.8204596094
2309,aniline,Nc1ccccc1,-0.41889966705
2310,aniline; formaldehyde,Nc1ccccc1,-2.1459060522666666
2311,anthracene,c1ccc2cc3ccccc3cc2c1,-6.41328470695
2312,anthracene; benzene; ethylbenzene; naphthalene; tetradecane,CCCCCCCCCCCCCC,-5.6389550037500005
2313,azacyclotridecan-2-one,O=C1CCCCCCCCCCCN1,-2.7839981100199997
2314,azepan-2-one,O=C1CCCCCN1,0.8721982384
2315,azepane,C1CCCNCC1,0.2340379542
2316,aziridine,C1CN1,1.3658352118
2317,benzaldehyde,O=Cc1ccccc1,-1.3140311578333332
2318,benzene,c1ccccc1,-1.6304399516
2319,"benzene-1,2-diamine",Nc1ccccc1N,-0.491125307
2320,"benzene-1,2-dicarboxylic acid",OC(=O)c1ccccc1C(O)=O,-1.3263710606999999
2321,"benzene-1,2-diol",Oc1ccccc1O,0.66846004355
2322,"benzene-1,3,5-tricarboxylic acid",OC(=O)c1cc(cc(c1)C(O)=O)C(O)=O,-1.9422995529
2323,"benzene-1,3-diamine",Nc1cccc(N)c1,0.5984548631
2324,"benzene-1,3-diol",Oc1cccc(O)c1,0.928488084275
2325,"benzene-1,4-diamine",Nc1ccc(N)cc1,-0.5225821237
2326,"benzene-1,4-dicarbonyl dichloride",ClC(=O)c1ccc(cc1)C(Cl)=O,-4.08012495005
2327,"benzene-1,4-diol",Oc1ccc(O)cc1,-0.19099717123333335
2328,benzene; ethenylbenzene; toluene,Cc1ccccc1,-2.971261672266667
2329,benzenesulfonic acid,O[S](=O)(=O)c1ccccc1,0.8489070931
2330,benzenesulfonyl chloride,Cl[S](=O)(=O)c1ccccc1,-1.88532188
2331,benzoate; diaminomethylideneazanium,N[C+](N)N,0.0050162556
2332,benzoic acid,OC(=O)c1ccccc1,-1.5831989168
2333,benzonitrile,N#Cc1ccccc1,-5.0133597502
2334,benzoyl benzenecarboperoxoate,O=C(OOC(=O)c1ccccc1)c2ccccc2,-5.8401598848
2335,benzyl (2E)-3-phenylprop-2-enoate,O=C(OCc1ccccc1)/C=C/c2ccccc2,-4.8207960263
2336,benzyl 2-hydroxybenzoate,Oc1ccccc1C(=O)OCc2ccccc2,-4.4139224059
2337,benzyl 2-methylprop-2-enoate,CC(=C)C(=O)OCc1ccccc1,-2.9682045412
2338,benzyl 2-phenylacetate,O=C(Cc1ccccc1)OCc2ccccc2,-3.8632748797