,Name,SMILES,Solubility
1736,"4-[1,1,1,3,3,3-hexafluoro-2-(4-hydroxyphenyl)propan-2-yl]phenol",Oc1ccc(cc1)C(c2ccc(O)cc2)(C(F)(F)F)C(F)(F)F,-3.1795029693
1737,"4-[1,1-bis(4-hydroxyphenyl)ethyl]phenol",CC(c1ccc(O)cc1)(c2ccc(O)cc2)c3ccc(O)cc3,-4.086559757
1738,4-[2-(4-aminophenyl)ethyl]aniline,Nc1ccc(CCc2ccc(N)cc2)cc1,-3.6457005741
1739,"4-[2-(4-hydroxy-3,5-dimethylphenyl)propan-2-yl]-2,6-dimethylphenol",Cc1cc(cc(C)c1O)C(C)(C)c2cc(C)c(O)c(C)c2,-4.9528688028
1740,4-[2-(4-hydroxycyclohexyl)propan-2-yl]cyclohexan-1-ol,CC(C)(C1CCC(O)CC1)C2CCC(O)CC2,-3.0976097488
1741,4-[2-(4-hydroxyphenyl)propan-2-yl]phenol,CC(C)(c1ccc(O)cc1)c2ccc(O)cc2,-2.8754060069
1742,4-[4-(hydrazinesulfonyl)phenoxy]benzene-1-sulfonohydrazide,NN[S](=O)(=O)c1ccc(Oc2ccc(cc2)[S](=O)(=O)NN)cc1,-3.7584891954
1743,4-[4-(propan-2-yloxy)benzenesulfonyl]phenol,CC(C)Oc1ccc(cc1)[S](=O)(=O)c2ccc(O)cc2,-4.1714457851
1744,4-[4-[[4-chloro-3-(trifluoromethyl)phenyl]carbamoylamino]phenoxy]-N-methylpyridine-2-carboxamide,CNC(=O)c1cc(Oc2ccc(NC(=O)Nc3ccc(Cl)c(c3)C(F)(F)F)cc2)ccn1,-6.6672950838
1745,4-[9-(4-amino-3-chlorophenyl)-9H-fluoren-9-yl]-2-chloroaniline,Nc1ccc(cc1Cl)C2(c3ccc(N)c(Cl)c3)c4ccccc4c5ccccc25,-6.9044856274
1746,4-[[2-methoxy-4-[(4-nitrophenyl)azo]phenyl]azo]phenol,COc1cc(ccc1NN=C2C=CC(=O)C=C2)N=Nc3ccc(cc3)[N+]([O-])=O,-6.9639720065
1747,4-acetamidobenzene-1-sulfonyl chloride,CC(=O)Nc1ccc(cc1)[S](Cl)(=O)=O,-2.3330414647
1748,4-acetylmorpholine,CC(=O)N1CCOCC1,0.8888753261
1749,"4-allyl-1,2-dimethoxybenzene",COc1ccc(CC=C)cc1OC,-2.5520132395
1750,"4-allyl-1,2-dimethoxybenzene",COc1ccc(\C=C\C)cc1OC,-2.7782267945
1751,"4-amino-2,5-dimethoxy-N-methylbenzenesulfonamide",CN[S](=O)(=O)c1cc(OC)c(N)cc1OC,-3.6510805625
1752,"4-amino-2,5-dimethoxy-N-phenylbenzenesulfonamide",COc1cc(c(OC)cc1N)[S](=O)(=O)Nc2ccccc2,-4.0576928644
1753,"4-amino-3,6-dichloropyridine-2-carboxylic acid",Nc1cc(Cl)nc(C(O)=O)c1Cl,-0.0008086595333333333
1754,4-amino-3-methylphenol,Cc1cc(O)ccc1N,-1.8668730329
1755,4-amino-3-nitrophenol,Nc1ccc(O)cc1[N+]([O-])=O,-1.8337646505
1756,"4-amino-5-fluoro-1,2-dihydropyrimidin-2-one",NC1=C(F)C=NC(=O)N1,-1.0502082173
1757,"4-amino-5-methoxy-N,2-dimethylbenzenesulfonamide",CN[S](=O)(=O)c1cc(OC)c(N)cc1C,-2.5769433589
1758,4-amino-N-(2-ethylhexyl)benzene-1-sulfonamide,CCCCC(CC)CN[S](=O)(=O)c1ccc(N)cc1,-5.4539677668
1759,4-amino-N-(4-carbamoylphenyl)benzamide,NC(=O)c1ccc(NC(=O)c2ccc(N)cc2)cc1,-4.9156499936
1760,"4-amino-N-tert-butyl-5-oxo-3-(propan-2-yl)-4,5-dihydro-1H-1,2,4-triazole-1-carboxamide",CC(C)C1=NN(C(=O)NC(C)(C)C)C(=O)N1N,-1.7188962277857143
1761,4-aminobenzamide,NC(=O)c1ccc(N)cc1,-1.2255453859
1762,"4-aminobenzene-1,3-disulfonic acid",Nc1ccc(cc1[S](O)(=O)=O)[S](O)(=O)=O,-1.7700930025
1763,4-aminobenzenesulfonic acid,Nc1ccc(cc1)[S](O)(=O)=O,-1.1412730253
1764,4-aminobenzonitrile,Nc1ccc(cc1)C#N,-1.1534413181
1765,"4-benzoylbenzene-1,2,3-triol",Oc1ccc(c(O)c1O)C(=O)c2ccccc2,-3.3451078238
1766,"4-bromo-1,2-dichlorobenzene",Clc1ccc(Br)cc1Cl,-1.0114935501
1767,"4-bromo-2,2-diphenylbutanoic acid",OC(=O)C(CCBr)(c1ccccc1)c2ccccc2,-4.0694912575
1768,4-bromophenyl acetate,CC(=O)Oc1ccc(Br)cc1,-2.4166041571
1769,4-chloro-1-(4-fluorophenyl)butan-1-one,Fc1ccc(cc1)C(=O)CCCCl,-2.7226339225
1770,4-chloro-1-nitro-2-(trifluoromethyl)benzene,[O-][N+](=O)c1ccc(Cl)cc1C(F)(F)F,-3.1279393261
1771,"4-chloro-2,5-dimethoxyaniline",COc1cc(Cl)c(OC)cc1N,-3.0061212915
1772,4-chloro-2-(2-chlorobenzoyl)aniline,Nc1ccc(Cl)cc1C(=O)c2ccccc2Cl,-7.4250889383
1773,4-chloro-2-(trifluoromethyl)aniline,Nc1ccc(Cl)cc1C(F)(F)F,-2.2934813757
1774,4-chloro-2-methylphenol,Cc1cc(Cl)ccc1O,-1.7923460039
1775,4-chloro-2-nitroaniline,Nc1ccc(Cl)cc1[N+]([O-])=O,-3.2546965827
1776,"4-chloro-3,5-dimethylphenol",Cc1cc(O)cc(C)c1Cl,-2.5047194148500003
1777,4-chloro-N-(3-chloro-2-methylphenyl)-3-[(E)-2-{1-[(5-chloro-4-{2-[(E)-2-{2-chloro-5-[(3-chloro-2-methylphenyl)carbamoyl]phenyl}diazen-1-yl]-3-oxobutanamido}-2-methylphenyl)carbamoyl]-2-oxopropyl}diazen-1-yl]benzamide,CC(=O)C(N=Nc1cc(ccc1Cl)C(=O)Nc2cccc(Cl)c2C)C(=O)Nc3cc(Cl)c(NC(=O)C(N=Nc4cc(ccc4Cl)C(=O)Nc5cccc(Cl)c5C)C(C)=O)cc3C,-7.9717711074
1778,"4-chloro-N-(5-chloro-2-methylphenyl)-3-[(E)-2-{1-[(4-{2-[(E)-2-{2-chloro-5-[(5-chloro-2-methylphenyl)carbamoyl]phenyl}diazen-1-yl]-3-oxobutanamido}-2,5-dimethylphenyl)carbamoyl]-2-oxopropyl}diazen-1-yl]benzamide",CC(=O)C(N=Nc1cc(ccc1Cl)C(=O)Nc2cc(Cl)ccc2C)C(=O)Nc3cc(C)c(NC(=O)C(N=Nc4cc(ccc4Cl)C(=O)Nc5cc(Cl)ccc5C)C(C)=O)cc3C,-7.2632335384
1779,4-chloroaniline,Nc1ccc(Cl)cc1,-1.6001314455333333
1780,4-chlorobenzaldehyde,Clc1ccc(C=O)cc1,-2.18082599415
1781,"4-chlorobenzene-1,3-diol",Oc1ccc(Cl)c(O)c1,-0.4813978771333334
1782,4-chlorobenzonitrile,Clc1ccc(cc1)C#N,-2.749354496
1783,4-chlorophenol,Oc1ccc(Cl)cc1,-0.6864707637599999
1784,4-cyanophenyl acetate,CC(=O)Oc1ccc(cc1)C#N,-1.7990172934
1785,4-cyclohexyl-4-methylpentan-2-one,CC(=O)CC(C)(C)C1CCCCC1,-3.5481536429
1786,4-cyclohexylbutan-2-ol,CC(O)CCC1CCCCC1,-2.7673615716
1787,4-cyclohexylphenol,Oc1ccc(cc1)C2CCCCC2,-4.0758895864
1788,4-ethenylcyclohex-1-ene,C=CC1CCC=CC1,-3.3351930307
1789,4-ethoxyaniline,CCOc1ccc(N)cc1,-0.8485512303
1790,4-ethoxybenzoic acid,CCOc1ccc(cc1)C(O)=O,-2.4548997462
1791,4-ethylmorpholine,CCN1CCOCC1,0.4200806369
1792,4-ethylphenol,CCc1ccc(O)cc1,-1.2177221895
1793,4-fluoroaniline,Nc1ccc(F)cc1,-0.5272743845
1794,4-formyl-2-methoxyphenyl 2-methylpropanoate,COc1cc(C=O)ccc1OC(=O)C(C)C,-2.5886676064
1795,4-heptylphenol,CCCCCCCc1ccc(O)cc1,-3.6597017052
1796,"4-hexylbenzene-1,3-diol",CCCCCCc1ccc(O)cc1O,-2.4426966642
1797,"4-hydroxy-2,2,6,6-tetramethylpiperidinoxyl",CC1(C)CC(O)CC(C)(C)N1[O],0.5627035438
1798,"4-hydroxy-2,5-dimethyl-2,3-dihydrofuran-3-one",CC1OC(=C(O)C1=O)C,0.3906698962
1799,4-hydroxy-3-(3-oxo-1-phenylbutyl)-2H-chromen-2-one,CC(=O)CC(c1ccccc1)C2=C(O)Oc3ccccc3C2=O,-2.8433180537999996
1800,4-hydroxy-3-methoxy-5-nitrobenzaldehyde,COc1cc(C=O)cc(c1O)[N+]([O-])=O,-2.4496899299
1801,4-hydroxy-3-methoxybenzaldehyde,COc1cc(C=O)ccc1O,-1.2280265929
1802,4-hydroxybenzene-1-sulfonic acid,Oc1ccc(cc1)[S](O)(=O)=O,0.8789246042
1803,4-hydroxybenzenesulfonic acid,Oc1ccc(cc1)[S](O)(=O)=O,0.7590091939
1804,4-hydroxybenzoic acid,OC(=O)c1ccc(O)cc1,-1.4527338971
1805,4-hydroxybutyl prop-2-enoate,OCCCCOC(=O)C=C,0.8411251015
1806,4-isopropylbenzaldehyde,CC(C)c1ccc(C=O)cc1,-2.1708628557
1807,4-isopropylbenzonitrile,CC(C)c1ccc(cc1)C#N,-2.9887953027
1808,4-methanesulfonyl-1-methyl-2-nitrobenzene,Cc1ccc(cc1[N+]([O-])=O)[S](C)(=O)=O,-2.7647010816
1809,4-methoxy-2-nitroaniline,COc1ccc(N)c(c1)[N+]([O-])=O,-1.2257020372
1810,4-methoxy-3-nitro-N-phenylbenzamide,COc1ccc(cc1[N+]([O-])=O)C(=O)Nc2ccccc2,-4.9878258088
1811,4-methoxy-3-nitrobenzoic acid,COc1ccc(cc1[N+]([O-])=O)C(O)=O,-2.6613195143
1812,4-methoxyaniline,COc1ccc(N)cc1,-0.75813106075
1813,4-methoxybenzaldehyde,COc1ccc(C=O)cc1,-1.83298765
1814,"4-methyl-1,3-dioxolan-2-one",CC1COC(=O)O1,0.30264569545000003
1815,"4-methyl-1,3-oxazole-5-carbonitrile",Cc1ncoc1C#N,-0.324555733
1816,4-methyl-1-(propan-2-yl)cyclohex-3-en-1-ol,CC(C)C1(O)CCC(=CC1)C,-2.2709844196
1817,"4-methyl-2,3-dihydro-1H-1,3-benzodiazole-2-thione; 5-methyl-2,3-dihydro-1H-1,3-benzodiazole-2-thione",Cc1cccc2NC(=S)Nc12,-3.13627918
1818,"4-methyl-2,6-bis[(4-methylphenyl)amino]-5-{2-[2-(trifluoromethyl)phenyl]diazen-1-yl}pyridine-3-carbonitrile",Cc1ccc(Nc2nc(Nc3ccc(C)cc3)c(C#N)c(C)c2N=Nc4ccccc4C(F)(F)F)cc1,-7.7171571443
1819,4-methyl-2-(2-methylprop-1-en-1-yl)oxane,CC1CCOC(C1)C=C(C)C,-2.2244457918
1820,4-methyl-2-(2-methylpropyl)oxan-4-ol,CC(C)CC1CC(C)(O)CCO1,2.1376816201
1821,4-methyl-2-[(2-nitrophenyl)diazenyl]phenol,CC1=CC(=N/Nc2ccccc2[N+]([O-])=O)\C(=O)C=C1,-5.7475958635
1822,4-methyl-2-nitroaniline,Cc1ccc(N)c(c1)[N+]([O-])=O,-1.860061225
1823,4-methyl-3-nitrobenzoic acid,Cc1ccc(cc1[N+]([O-])=O)C(O)=O,-2.8480980227
1824,"4-methyl-3a,4,7,7a-tetrahydro-2-benzofuran-1,3-dione",CC1C=CCC2C1C(=O)OC2=O,-0.7362684616
1825,4-methyl-4-phenylpentan-2-ol,CC(O)CC(C)(C)c1ccccc1,-2.1472867242
1826,4-methyl-4-phenylpentan-2-one,CC(=O)CC(C)(C)c1ccccc1,-2.337666283
1827,4-methylaniline,Cc1ccc(N)cc1,-0.9482959316399999
1828,4-methylbenzaldehyde,Cc1ccc(C=O)cc1,-2.2027444568
1829,"4-methylbenzene-1,3-diamine",Cc1ccc(N)cc1N,-0.5071845321
1830,4-methylbenzene-1-sulfonamide,Cc1ccc(cc1)[S](N)(=O)=O,-1.7421953353
1831,4-methylbenzene-1-sulfonic acid,Cc1ccc(cc1)[S](O)(=O)=O,0.8261600517
1832,4-methylbenzoyl 4-methylbenzene-1-carboperoxoate,Cc1ccc(cc1)C(=O)OOC(=O)c2ccc(C)cc2,-6.798351882
1833,4-methylene-2-(2-methylprop-1-en-1-yl)tetrahydro-2H-pyran,CC(C)=CC1CC(=C)CCO1,-2.5104223592
1834,4-methylpent-1-ene,CC(C)CC=C,-3.3923616684
1835,4-methylpent-3-en-2-one,CC(C)=CC(C)=O,-0.560826234
1836,4-methylpentan-2-ol,CC(C)CC(C)O,-0.6708966537
1837,4-methylpentan-2-one,CC(C)CC(C)=O,-0.8514795392
1838,4-methylphenol,Cc1ccc(O)cc1,-0.7227498296
1839,"4-naphthalen-2-yl-1,3-thiazol-2-amine",Nc1scc(n1)c2ccc3ccccc3c2,-4.849542252
1840,"4-nitrobenzene-1,3-diamine",Nc1ccc(c(N)c1)[N+]([O-])=O,-1.48742828215
1841,4-nitrobenzoic acid,OC(=O)c1ccc(cc1)[N+]([O-])=O,-2.78319382415
1842,4-nitrophenyl acetate,CC(=O)Oc1ccc(cc1)[N+]([O-])=O,-2.5992568252
1843,4-nonylphenol,CCCCCCCCCc1ccc(O)cc1,-4.4980268403
1844,4-phenylbut-3-en-2-one,CC(=O)\C=C\c1ccccc1,-2.050971343
1845,4-phenylbutan-2-one,CC(=O)CCc1ccccc1,-1.7160179957
1846,4-piperidin-4-ylmorpholine,C1CC(CCN1)N2CCOCC2,-2.9027228224
1847,"4-tert-butyl-2-(5-tert-butyl-2-oxo-2,3-dihydro-1-benzofuran-3-yl)phenyl 3,5-di-tert-butyl-4-hydroxybenzoate",CC(C)(C)c1ccc2OC(=O)C(c2c1)c3cc(ccc3OC(=O)c4cc(c(O)c(c4)C(C)(C)C)C(C)(C)C)C(C)(C)C,-8.8485126167
1848,4-tert-butylbenzaldehyde,CC(C)(C)c1ccc(C=O)cc1,-3.1424588932
1849,"4-tert-butylbenzene-1,2-diol",CC(C)(C)c1ccc(O)c(O)c1,-1.5974339876
1850,4-tert-butylbenzoic acid,CC(C)(C)c1ccc(cc1)C(O)=O,-2.8441334159666667
1851,4-tert-butylcyclohexan-1-ol,CC(C)(C)C1CCC(O)CC1,-3.05939032835
1852,4-tert-butylcyclohexan-1-one,CC(C)(C)C1CCC(=O)CC1,-2.4173816076
1853,4-tert-butylcyclohexyl acetate,CC(=O)OC1CCC(CC1)C(C)(C)C,-4.223374085050001
1854,4-tert-butylcyclohexyl prop-2-enoate,CC(C)(C)C1CCC(CC1)OC(=O)C=C,-3.8637457305
1855,4-tert-butylphenol,CC(C)(C)c1ccc(O)cc1,-2.3914008137
1856,4-tert-butylphenol; formaldehyde,CC(C)(C)c1ccc(O)cc1,-6.4939402067
1857,4-{1-[4-(cyanooxy)phenyl]ethyl}phenyl cyanate,CC(c1ccc(OC#N)cc1)c2ccc(OC#N)cc2,-5.2179508887
1858,4-{1-[4-hydroxy-3-(prop-2-en-1-yl)phenyl]propyl}-2-(prop-2-en-1-yl)phenol,CC(C)(c1ccc(O)c(CC=C)c1)c2ccc(O)c(CC=C)c2,-3.9963835519
1859,4-{2-[(2-methylprop-2-enoyl)oxy]ethoxy}-4-oxobutanoic acid,CC(=C)C(=O)OCCOC(=O)CCC(O)=O,-0.706708916
1860,"4-{2-[(2E)-5-[bis(propan-2-yl)amino]-3-methyl-2,3-dihydro-1,3,4-thiadiazol-2-ylidene]hydrazin-1-ylidene}-N,N-dimethylcyclohexa-2,5-dien-1-iminium methyl sulfate",CO[S]([O-])(=O)=O,-1.2596984381
1861,4-{2-[4-(cyanooxy)phenyl]propan-2-yl}phenyl cyanate,CC(C)(c1ccc(OC#N)cc1)c2ccc(OC#N)cc2,-5.4695583775
1862,4-{4-[(diphenoxyphosphoryl)oxy]phenyl}phenyl diphenyl phosphate,O=[P](Oc1ccccc1)(Oc2ccccc2)Oc3ccc(cc3)c4ccc(O[P](=O)(Oc5ccccc5)Oc6ccccc6)cc4,-7.813287357
1863,"4-{4-[4-(4-methoxyphenyl)piperazin-1-yl]phenyl}-4,5-dihydro-1H-1,2,4-triazol-5-one",COc1ccc(cc1)N2CCN(CC2)c3ccc(cc3)N4C=NNC4=O,-6.4889092646
1864,"4-{[2,5-dimethoxy-4-(methylsulfamoyl)phenyl]diazenyl}-3-hydroxy-N-(2-oxo-2,3-dihydro-1H-benzimidazol-5-yl)-2-naphthamide",CN[S](=O)(=O)c1cc(OC)c(N\N=C2/C(=O)C(=Cc3ccccc23)C(=O)Nc4ccc5NC(=O)Nc5c4)cc1OC,-7.8916361395
1865,"4-{[4-(diethylamino)phenyl](phenyl)methylidene}-N,N-diethylcyclohexa-2,5-dien-1-iminium acetate",CCN(CC)c1ccc(cc1)[C+](c2ccccc2)c3ccc(cc3)N(CC)CC,-0.6479880176
1866,"4-{[bis(octylsulfanyl)-1,3,5-triazin-2-yl]amino}-2,6-di-tert-butylphenol",CCCCCCCCSc1nc(Nc2cc(c(O)c(c2)C(C)(C)C)C(C)(C)C)nc(SCCCCCCCC)n1,-6.6195796509000004
1867,"4-{bis[4-(dimethylamino)phenyl]methyl}-N,N-dimethylaniline",CN(C)c1ccc(cc1)C(c2ccc(cc2)N(C)C)c3ccc(cc3)N(C)C,-5.4583984127
1868,"5,11-dioxatricyclo[7.3.0.0³,?]dodeca-1,3(7),8-triene-4,6,10,12-tetrone",O=C1OC(=O)c2cc3C(=O)OC(=O)c3cc12,-1.3927347854
1869,"5,5-dimethylimidazolidine-2,4-dione",CC1(C)NC(=O)NC1=O,0.0384738201
1870,"5,7,12,14-tetrahydro-5,12-diazapentacene-7,14-dione",O=C1c2ccccc2Nc3cc4C(=O)c5ccccc5Nc4cc13,-7.4817736955
1871,"5,7-dihydroxy-2-(3-hydroxy-4-methoxyphenyl)-4H-chromen-4-one",COc1ccc(cc1O)C2=CC(=O)c3c(O)cc(O)cc3O2,-6.1987525576
1872,"5,8,11,13,16,19-hexaoxatricosane",CCCCOCCOCCOCOCCOCCOCCCC,-1.3016357757
1873,"5,9-diethylhexadecane; anthracene; icosane",CCCCCCCCCCCCCCCCCCCC,-5.67187384655
1874,"5-(2-methylundecan-2-yldisulfanyl)-3H-1,3,4-thiadiazole-2-thione",CCCCCCCCCC(C)(C)SSC1=NNC(=S)S1,-3.9885639112
1875,"5-(4-hydroxyphenyl)imidazolidine-2,4-dione",Oc1ccc(cc1)C2NC(=O)NC2=O,-2.1731049195
1876,5-(aminomethyl)-2-methylpyrimidin-4-amine,Cc1ncc(CN)c(N)n1,0.4903065627
1877,5-(dithiolan-3-yl)valeric acid,OC(=O)CCCCC1CCSS1,-2.3750473352
1878,5-(methoxymethyl)furan-2-carbaldehyde,COCc1oc(C=O)cc1,-0.0227042741
1879,5-Chlorothiophene-2-sulfonamide,N[S](=O)(=O)c1sc(Cl)cc1,-3.2959363681
1880,5-Ethyl-2-methylpyridine,CCc1ccc(C)nc1,-1.0042604536
1881,5-[(2-hydroxyethyl)amino]-2-methylphenol,Cc1ccc(NCCO)cc1O,-0.6550553282
1882,"5-[(4-chloro-2-nitrophenyl)diazenyl]-1-ethyl-6-hydroxy-4-methyl-2-oxo-1,2-dihydropyridine-3-carbonitrile",CCN1C(=O)C(=N/Nc2ccc(Cl)cc2[N+]([O-])=O)/C(=C(C#N)C1=O)C,-4.96733793
1883,"5-[(5-sulfanylidene-4,5-dihydro-1,3,4-thiadiazol-2-yl)disulfanyl]-2,3-dihydro-1,3,4-thiadiazole-2-thione",S=C1NN=C(SSC2=NNC(=S)S2)S1,-3.2522133148
1884,"5-[(E)-2-(3,4-dichlorophenyl)diazen-1-yl]-6-hydroxy-1,4-dimethyl-2-oxo-1,2-dihydropyridine-3-carbonitrile",CN1C(=O)C(=N/Nc2ccc(Cl)c(Cl)c2)/C(=C(C#N)C1=O)C,-6.9257837823
1885,"5-[(E)-2-(6-methyl-2-oxo-2,3-dihydro-1H-1,3-benzodiazol-5-yl)diazen-1-yl]-1,3-diazinane-2,4,6-trione",CC1=CC2=NC(=O)N=C2C=C1NNC3C(=O)NC(=O)NC3=O,-6.4891402338
1886,"5-[3-(2,4,6-trioxo-1,3-diazinan-5-ylidene)-2,3-dihydro-1H-isoindol-1-ylidene]-1,3-diazinane-2,4,6-trione",O=C1NC(=O)C(C(=O)N1)=C2NC(c3ccccc23)=C4C(=O)NC(=O)NC4=O,-7.410861066433333
1887,"5-amino-2,3-dihydro-1H-1,3-benzodiazol-2-one",Nc1ccc2NC(=O)Nc2c1,-2.3347829023
1888,"5-amino-2,4,6-triiodoisophthalic acid",Nc1c(I)c(C([O-])=O)c(I)c(C([O-])=O)c1I,-1.569622787
1889,5-amino-2-[(E)-2-(4-amino-2-sulfophenyl)ethenyl]benzene-1-sulfonic acid,Nc1ccc(\C=C\c2ccc(N)cc2[S](O)(=O)=O)c(c1)[S](O)(=O)=O,-3.6522046582333334
1890,5-amino-2-methylbenzenesulfonic acid,Cc1ccc(N)cc1[S](O)(=O)=O,-2.0170797358
1891,"5-amino-6-methyl-2,3-dihydro-1H-1,3-benzodiazol-2-one",Cc1cc2NC(=O)Nc2cc1N,-1.84922185845
1892,"5-bromo-1,2,3-trifluorobenzene",Fc1cc(Br)cc(F)c1F,-3.2102979357
1893,"5-chloro-1-(piperidin-4-yl)-2,3-dihydro-1H-1,3-benzodiazol-2-one",Clc1ccc2N(C3CC[NH2+]CC3)C(=O)Nc2c1,-2.6630758608
1894,"5-chloro-2-(2,4-dichlorophenoxy)aniline",Nc1cc(Cl)ccc1Oc2ccc(Cl)cc2Cl,-5.0452642864
1895,"5-chloro-2-(2,4-dichlorophenoxy)phenol",Oc1cc(Cl)ccc1Oc2ccc(Cl)cc2Cl,-4.47661239808
1896,5-chloro-2-(4-chlorophenoxy)phenol,Oc1cc(Cl)ccc1Oc2ccc(Cl)cc2,-4.2542598099
1897,5-chloro-2-methylaniline,Cc1ccc(Cl)cc1N,-2.0718850743
1898,5-chloro-2-nitrophenol,Oc1cc(Cl)ccc1[N+]([O-])=O,-2.6373771386
1899,5-chloro-7-iodoquinolin-8-ol,Oc1c(I)cc(Cl)c2cccnc12,-1.8222562261
1900,5-heptyloxolan-2-one,CCCCCCC[C@H]1CCC(=O)O1,-3.0668187599
1901,5-hexyl-5-methyldihydrofuran-2(3H)-one,CCCCCCC1(C)CCC(=O)O1,-2.6432618239
1902,"5-hydroxy-2-(3-hydroxy-4-methoxyphenyl)-4-oxo-3,4-dihydro-2H-chromen-7-yl 6-O-(6-deoxy-alpha-L-mannopyranosyl)-beta-D-glucopyranoside",COc1ccc(cc1O)[C@@H]2CC(=O)c3c(O)cc(O[C@@H]4O[C@H](CO[C@@H]5O[C@@H](C)[C@H](O)[C@@H](O)[C@H]5O)[C@@H](O)[C@H](O)[C@H]4O)cc3O2,-5.004718704366667
1903,"5-hydroxy-2-(3-hydroxy-4-methoxyphenyl)-7-{[(2S,3R,4S,5S,6R)-3,4,5-trihydroxy-6-({[(2R,3R,4R,5R,6S)-3,4,5-trihydroxy-6-methyloxan-2-yl]oxy}methyl)oxan-2-yl]oxy}-4H-chromen-4-one",COc1ccc(cc1O)C2=CC(=O)c3c(O)cc(O[C@@H]4O[C@H](CO[C@@H]5O[C@@H](C)[C@H](O)[C@@H](O)[C@H]5O)[C@@H](O)[C@H](O)[C@H]4O)cc3O2,-7.5055419522
1904,5-hydroxyisophthalic acid,OC(=O)c1cc(O)cc(c1)C(O)=O,-2.005111367
1905,"5-isocyanato-1-(isocyanatomethyl)-1,3,3-trimethylcyclohexane",CC1(C)CC(CC(C)(CN=C=O)C1)N=C=O,-4.1708247593
1906,"5-methoxy-1,3-dihydro-2H-benzimidazole-2-thione",COc1ccc2NC(=S)Nc2c1,-2.7506819237
1907,5-methoxy-1-[4-(trifluoromethyl)phenyl]pentan-1-one,COCCCCC(=O)c1ccc(cc1)C(F)(F)F,-3.5440597008
1908,"5-methyl-1,2-oxazole-4-carboxylate",Cc1oncc1C([O-])=O,-1.0553611102
1909,"5-methyl-1,3,3a,4,7,7a-hexahydro-2-benzofuran-1,3-dione",CC1CCC2C(C1)C(=O)OC2=O,-1.2480817296
1910,"5-methyl-1H-1,2,3-benzotriazole",Cc1cccc2n[nH]nc12,-1.5169635388
1911,"5-methyl-2-(4-methylphenyl)-2,3-dihydro-1H-pyrazol-3-one",Cc1ccc(cc1)N2N=C(C)CC2=O,-2.365667988
1912,5-methyl-2-(propan-2-yl)cyclohexan-1-ol,CC(C)C1CCC(C)CC1O,-2.52931633165
1913,5-methyl-2-(propan-2-yl)cyclohexan-1-ol,CC(C)[C@@H]1CC[C@@H](C)C[C@H]1O,-2.5311802179
1914,5-methyl-2-(propan-2-yl)phenol,CC(C)c1ccc(C)cc1O,-2.1996093940000003
1915,"5-methyl-2-phenyl-2,3-dihydro-1H-pyrazol-3-one",CC1=NN(C(=O)C1)c2ccccc2,-1.8665858116999998
1916,"5-methyl-2-phenyl-4-(phenyldiazenyl)-2,4-dihydro-3H-pyrazol-3-one",CC1=NN(c2ccccc2)C(=O)C1N=Nc3ccccc3,-7.5414466266
1917,"5-methyl-3a,4,7,7a-tetrahydro-2-benzofuran-1,3-dione",CC1=CCC2C(C1)C(=O)OC2=O,-1.0999943697
1918,5-methyl-5-phenylhexan-3-one,Cc1ccc(cc1)[S](=O)(=O)/C(=C/N2CC(=O)NC2=S)C#N,-3.5292992951
1919,"5-methyl-[1,2,4]triazolo[1,5-a]pyrimidin-7-ol",CC1=CC(=O)N2NC=NC2=N1,-1.3417943705
1920,"5-methyl-octahydro-2-benzofuran-1,3-dione",CC1CCC2C(C1)C(=O)OC2=O,-1.3015260488
1921,5-methylheptan-3-one,CCC(C)CC(=O)CC,-1.630817582
1922,"5-nitro-1,3-dihydro-2H-benzimidazol-2-one",[O-][N+](=O)c1ccc2NC(=O)Nc2c1,-3.2740875474
1923,"5-nitro-2,3-dihydro-1H-1,2,4-triazol-3-one",[O-][N+](=O)C1=NC(=O)NN1,-0.8786253202
1924,5-nitroisophthalic acid,OC(=O)c1cc(cc(c1)[N+]([O-])=O)C(O)=O,-2.178419855
1925,"5-nitropyrimidine-2,4,6-triamine",Nc1nc(N)c(N=O)c(N)n1,-3.8454729507
1926,5-oxo-DL-proline,OC(=O)C1CCC(=O)N1,-0.4042589172
1927,5-pentyloxolan-2-one,CCCCC[C@H]1CCC(=O)O1,-1.8552940397
1928,"5-tert-butyl-2-[5-(5-tert-butyl-1,3-benzoxazol-2-yl)thiophen-2-yl]-1,3-benzoxazole",CC(C)(C)c1ccc2oc(nc2c1)c3sc(cc3)c4oc5ccc(cc5n4)C(C)(C)C,-6.634046793
1929,5-vinylbicyclo[2.2.1]hept-2-ene,C=CC1CC2CC1C=C2,-3.0798864018
1930,"5-{[2-(2-butoxyethoxy)ethoxy]methyl}-6-propyl-1,3-benzodioxole",CCCCOCCOCCOCc1cc2OCOc2cc1CCC,-4.0685889765
1931,"5-{[2-(2-butoxyethoxy)ethoxy]methyl}-6-propyl-2H-1,3-benzodioxole",CCCCOCCOCCOCc1cc2OCOc2cc1CCC,-4.1510889183
1932,"6'-(dibutylamino)-3'-methyl-2'-(phenylamino)-3H-spiro[2-benzofuran-1,9'-xanthene]-3-one",CCCCN(CCCC)c1ccc2c(Oc3cc(C)c(Nc4ccccc4)cc3C25OC(=O)c6ccccc56)c1,-7.185386555466667
1933,6'-methoxycinchonan-9-ol,COc1ccc2nccc([C@@H](O)[C@@H]3CC4CCN3C[C@@H]4C=C)c2c1,-2.8121429703
1934,6'-methoxycinchonan-9-ol,COc1ccc2nccc([C@H](O)[C@H]3C[C@@H]4CCN3C[C@@H]4C=C)c2c1,-3.08856395465
1935,6'-methoxycinchonan-9-ol sulfate (salt),COc1ccc2nccc(C(O)C3CC4CCN3CC4C=C)c2c1,-1.5924060415
1936,"6,10,14-trimethylpentadecan-2-one",CC(C)CCCC(C)CCCC(C)CCCC(C)=O,-5.4746775177
1937,"6,10-dimethylundeca-3,5,9-trien-2-one",CC(C)=CCC\C(C)=C\C=C\C(C)=O,-3.2972120668
1938,"6,10-dimethylundeca-5,9-dien-2-one",CC(C)=CCC\C(C)=C\CCC(C)=O,-4.01909237415
1939,"6,10-dimethylundecan-2-one",CC(C)CCCC(C)CCCC(C)=O,-4.0051761335
1940,"6,6',6''-(1,3,5-triazine-2,4,6-triyltriimino)trihexanoic acid",OC(=O)CCCCCNc1nc(NCCCCCC(O)=O)nc(NCCCCCC(O)=O)n1,-6.3920069757
1941,"6,6-dimethoxy-2,5,5-trimethylhex-2-ene",COC(OC)C(C)(C)CC=C(C)C,-3.3397616042
1942,"6,6-dimethyl-2-methylidenebicyclo[3.1.1]heptan-3-ol",CC1(C)C2CC(O)C(=C)C1C2,-2.09612479
1943,"6,6-dimethylheptanoic acid",CC(C)(C)CCCCC(O)=O,-1.6214992018999999
1944,"6,8-bis(phenylamino)naphthalene-1-sulfonic acid",O[S](=O)(=O)c1cccc2cc(Nc3ccccc3)cc(Nc4ccccc4)c12,-4.6725029066
1945,6-(prop-2-enoyloxy)hexyl prop-2-enoate,C=CC(=O)OCCCCCCOC(=O)C=C,-2.80883250515
1946,"6-({bis[(5-carboxypentyl)amino]-1,3,5-triazin-2-yl}amino)hexanoic acid",OC(=O)CCCCCNc1nc(NCCCCCC(O)=O)nc(NCCCCCC(O)=O)n1,-2.1237277977
1947,"6-Bromo-3-methyl-3H-dibenz[f,ij]isoquinoline-2,7-dione",CN1C(=O)C=C2c3ccccc3C(=O)c4c(Br)ccc1c24,-6.6804453214