,Name,SMILES,Solubility
2605,ethyl 2-methylbut-3-enoate,CCOC(=O)C(C)C=C,-1.5763108557
2606,ethyl 2-methylbutanoate,CCOC(=O)C(C)CC,-2.3364163689
2607,ethyl 2-methylpentanoate,CCCC(C)C(=O)OCC,-2.4896905423
2608,ethyl 2-methylprop-2-enoate,CCOC(=O)C(C)=C,-1.3862802449
2609,ethyl 2-methylpropanoate,CCOC(=O)C(C)C,-1.2554968887
2610,ethyl 2-phenylacetate,CCOC(=O)Cc1ccccc1,-2.1362024863
2611,"ethyl 3,4-dihydroxybenzoate",CCOC(=O)c1ccc(O)c(O)c1,-1.8591019155500002
2612,"ethyl 3,5,5-trimethylhexanoate",CCOC(=O)CC(C)CC(C)(C)C,-3.8135733691666664
2613,"ethyl 3,5-dichloro-4-{[(hexadecyloxy)carbonyl]oxy}benzoate",CCCCCCCCCCCCCCCCOC(=O)Oc1c(Cl)cc(cc1Cl)C(=O)OCC,-7.1338037886
2614,ethyl 3-[(diisopropoxyphosphorothioyl)sulfanyl]propanoate,CCOC(=O)CCS[P](=S)(OC(C)C)OC(C)C,-4.2747784981
2615,ethyl 3-ethoxypropanoate,CCOCCC(=O)OCC,-0.4317085178
2616,ethyl 3-methyl-3-phenyloxirane-2-carboxylate,CCOC(=O)C1OC1(C)c2ccccc2,-2.3143750058
2617,ethyl 3-methylbutanoate,CCOC(=O)CC(C)C,-1.8690549515
2618,ethyl 3-oxobutanoate,CCOC(=O)CC(C)=O,0.000523602
2619,ethyl 3-phenylacrylate,CCOC(=O)\C=C\c1ccccc1,-3.0130467638
2620,ethyl 3-phenyloxirane-2-carboxylate,CCOC(=O)C1OC1c2ccccc2,-2.4096512377
2621,"ethyl 4,4,4-trifluoro-3-oxobutanoate",CCOC(=O)CC(=O)C(F)(F)F,-1.6630244633
2622,ethyl 4-[[(methylphenylamino)methylene]amino]benzoate,CCOC(=O)c1ccc(cc1)N=CN(C)c2ccccc2,-5.4507770249
2623,ethyl 4-hydroxybenzoate,CCOC(=O)c1ccc(O)cc1,-2.2736250302
2624,ethyl 4-oxopiperidine-1-carboxylate,CCOC(=O)N1CCC(=O)CC1,0.7665063868
2625,"ethyl 5-oxo-1-phenyl-4,5-dihydro-1H-pyrazole-3-carboxylate",CCOC(=O)C1=NN(C(=O)C1)c2ccccc2,-3.2553454425
2626,ethyl 9-oxo-9H-thioxanthene-2-carboxylate,CCOC(=O)c1ccc2Sc3ccccc3C(=O)c2c1,-6.7566025068
2627,"ethyl N,N-diphenylcarbamate",CCOC(=O)N(c1ccccc1)c2ccccc2,-3.9692395593
2628,ethyl N-ethyl-N-phenylcarbamate,CCOC(=O)N(CC)c1ccccc1,0.8673994761
2629,ethyl [(4-methylphenyl)sulfonyl]carbamate,CCOC(=O)N[S](=O)(=O)c1ccc(C)cc1,-2.2430987475
2630,ethyl acetate,CCOC(C)=O,-0.027156627
2631,ethyl benzoate,CCOC(=O)c1ccccc1,-2.3989355294999997
2632,ethyl cyanoacetate,CCOC(=O)CC#N,-0.7524940436
2633,ethyl formate,CCOC=O,0.10125979439999999
2634,ethyl heptanoate,CCCCCCC(=O)OCC,-3.0989484737
2635,ethyl methyl carbonate,CCOC(=O)OC,-0.3458382084
2636,"ethyl phenyl(2,4,6-trimethylbenzoyl)phosphinate",CCO[P](=O)(C(=O)c1c(C)cc(C)cc1C)c2ccccc2,-3.9560819473
2637,ethyl prop-2-enoate,CCOC(=O)C=C,-0.7619472002000001
2638,ethyl propanoate,CCOC(=O)CC,-0.7304124879
2639,ethyl(propyl)amine,CCC[NH2+]CC,1.0546594571
2640,ethylbenzene,CCc1ccccc1,-2.76153528605
2641,ethylbis(propan-2-yl)amine,CCN(C(C)C)C(C)C,-1.1674410190666666
2642,fluorobenzene,Fc1ccccc1,-1.79688537765
2643,fluoroethene,FC=C,-0.5525833349
2644,fluoromethane,CF,-0.1758743765
2645,formaldehyde; 2-(2-hydroxyethylamino)ethanol; 2-methyloxirane; 2-nonylphenol,CCCCCCCCCc1ccccc1O,-1.4630694907
2646,formamide,NC=O,1.3463919758
2647,furan,o1cccc1,-0.83298765
2648,"furan-2,5-dicarboxylic acid",OC(=O)c1oc(cc1)C(O)=O,-2.2396237358
2649,furan-2-carboxylic acid,OC(=O)c1occc1,0.468496284
2650,heptan-2-one,CCCCCC(C)=O,-1.4333383705
2651,heptanal,CCCCCCC=O,-1.7501244285
2652,"heptyl 3-[3-(2H-1,2,3-benzotriazol-2-yl)-5-tert-butyl-4-hydroxyphenyl]propanoate nonyl 3-[3-(2H-1,2,3-benzotriazol-2-yl)-5-tert-butyl-4-hydroxyphenyl]propanoate octyl 3-[3-(2H-1,2,3-benzotriazol-2-yl)-5-tert-butyl-4-hydroxyphenyl]propanoate",CCC(C)CCCOC(=O)CCc1cc(n2nc3ccccc3n2)c(O)c(c1)C(C)(C)C,-6.571223095733333
2653,hex-3-en-1-yl hex-3-enoate,CC\C=C/CCOC(=O)C\C=C/CC,-4.517038700783334
2654,"hexa-2,4-dienoic acid",C/C=C/C=C/C(O)=O,-1.8565894775
2655,hexabromocyclododecane,BrC1CC(Br)CC(Br)CC(Br)CC(Br)CC(Br)C1,-7.63314066105
2656,hexadecan-1-ol,CCCCCCCCCCCCCCCCO,-6.491282854575
2657,hexadecanoic acid,CCCCCCCCCCCCCCCC(O)=O,-6.806908841
2658,hexadecanoic acid; octadecanoic acid,CCCCCCCCCCCCCCCCC(O)=O,-3.733128222
2659,hexadecyl 2-ethylhexanoate,CCCCCCCCCCCCCCCCOC(=O)C(CC)CCCC,-6.8676395216
2660,hexadecyl acetate,CCCCCCCCCCCCCCCCOC(C)=O,-7.3971529944
2661,hexadecyl hexadecanoate,CCCCCCCCCCCCCCCCOC(=O)CCCCCCCCCCCCCCC,-8.7546500954
2662,hexadecyl hexadecyloxy dicarbonate,CCCCCCCCCCCCCCCCOC(=O)OOC(=O)OCCCCCCCCCCCCCCCC,-5.7565570001
2663,hexadecyl(trimethoxy)silane,CCCCCCCCCCCCCCCC[Si](OC)(OC)OC,-5.5398636413
2664,hexadecyldimethylamine,CCCCCCCCCCCCCCCCN(C)C,-3.5854881238
2665,hexafluoroethane,FC(F)(F)C(F)(F)F,-2.4239072122
2666,hexafluoroprop-1-ene,FC(F)=C(F)C(F)(F)F,-2.8870541602666666
2667,"hexahydro-2-benzofuran-1,3-dione",O=C1OC(=O)C2CCCCC12,-1.5647364969
2668,"hexamethyl-1,3,5,2,4,6-trioxatrisilinane",C[Si]1(C)O[Si](C)(C)O[Si](C)(C)O1,-2.24520170265
2669,hexan-1-amine,CCCCCCN,-1.1686036931750001
2670,hexan-1-ol,CCCCCCO,-1.4322266648
2671,hexanal; pentanal; propanedial,CCCCCC=O,-5.4122219139
2672,hexane,CCCCCC,-3.9441703352
2673,"hexane-1,6-diamine",NCCCCCCN,0.7389034055
2674,"hexane-1,6-diamine; hexanedioic acid",NCCCCCCN,0.2513183806
2675,"hexane-1,6-diol",OCCCCCCO,1.6264407184
2676,"hexane-1,6-diyl bis[3-(3,5-di-tert-butyl-4-hydroxyphenyl)propanoate]",CC(C)(C)c1cc(CCC(=O)OCCCCCCOC(=O)CCc2cc(c(O)c(c2)C(C)(C)C)C(C)(C)C)cc(c1O)C(C)(C)C,-8.1064832759
2677,hexanedihydrazide,NNC(=O)CCCCC(=O)NN,-0.2324579511
2678,hexanedinitrile,N#CCCCCC#N,-0.1309124421
2679,hexanedioic acid,OC(=O)CCCCC(O)=O,-0.89124464755
2680,hexanedioic acid - piperazine (1:1),OC(=O)CCCCC(O)=O,-0.584548522
2681,hexanoic acid,CCCCCC(O)=O,-1.0522193787
2682,hexanoyl hexanoate,CCCCCC(=O)OC(=O)CCCCC,-4.296805043
2683,"hexasodium;(3~{Z})-5-[[4-morpholin-4-yl-6-[4-[(~{E})-2-[4-[[4-morpholin-4-yl-6-[[(7~{Z})-8-oxo-7-(phenylhydrazinylidene)-3,6-disulfonatonaphthalen-1-yl]amino]-1,3,5-triazin-2-yl]amino]-2-sulfonatophenyl]ethenyl]-3-sulfonatoanilino]-1,3,5-triazin-2-yl]amino]-4-oxo-3-(phenylhydrazinylidene)naphthalene-2,7-disulfonate",C1N(CCOC1)C2=NC(=NC(=N2)NC3=C4C(=O)/C(=N/NC5=CC=CC=C5)/C(=CC4=CC(=C3)S(=O)(=O)[O-])S(=O)(=O)[O-])NC6=CC(=C(C=C6)/C=C/C7=C(C=C(C=C7)NC8=NC(=NC(=N8)N9CCOCC9)NC1=C2C(=O)/C(=N/NC3=CC=CC=C3)/C(=CC2=CC(=C1)S(=O)(=O)[O-])S(=O)(=O)[O-])S(=O)(=O)[O-])S(=O)(=O)[O-],-1.144796153
2684,hexyl 2-[4-(diethylamino)-2-hydroxybenzoyl]benzoate,CCCCCCOC(=O)c1ccccc1C(=O)c2ccc(cc2O)N(CC)CC,-7.49729352985
2685,hexyl 2-hydroxybenzoate,CCCCCCOC(=O)c1ccccc1O,-5.0458782076
2686,hexyl 2-methylprop-2-enoate,CCCCCCOC(=O)C(C)=C,-3.7554210341
2687,hexyl D-glucoside,CCCCCCOC1O[C@H](CO)[C@@H](O)[C@H](O)[C@H]1O,-0.6586987459
2688,hexyl dodecanoate,CCCCCCCCCCCC(=O)OCCCCCC,-6.7550878414
2689,histidine,NC(Cc1[nH]cnc1)C(O)=O,-0.5573029182
2690,"hydrogen peroxide - 1,2-diisopropylbenzene (1:1)",CC(C)c1ccccc1C(C)C,-2.4977135853
2691,hydrogen sulfate; tetrakis(hydroxymethyl)phosphanium; urea,NC(N)=O,0.4036921179
2692,hydroxy(phenyl)acetic acid,O[C@@H](C(O)=O)c1ccccc1,-0.1416667622
2693,hydroxyzincio 2-methylprop-2-enoate,CC(=C)C(=O)O[Zn]O,-4.2239603591
2694,icosan-1-ol,CCCCCCCCCCCCCCCCCCCCO,-5.4750243489
2695,imidazolidin-2-one,O=C1NCCN1,0.8907756922333334
2696,imidazolidine-2-thione,S=C1NCCN1,-0.5715388236
2697,iodomethane,CI,-1.0744947289666669
2698,isobutyl 2-chloropropanoate,CC(C)COC(=O)[C@H](C)Cl,-2.5453029137499996
2699,isodecyl diphenyl phosphate,CC(C)CCCCCCCO[P](=O)(Oc1ccccc1)Oc2ccccc2,-7.5423585273
2700,isohexadecyl 12-[(1-oxooctadecyl)oxy]octadecanoate,CCCCCCCCCCCCCCCCCC(=O)OC(CCCCCC)CCCCCCCCCCC(=O)OCCCCCCCCCCCCCC(C)C,-8.7553724653
2701,"isooctadecanoic acid, monoester with glycerol",CC(C)CCCCCCCCCCCCCCC(=O)OC(CO)CO,-6.8555954685
2702,isooctyl acrylate,CC(C)CCCCCOC(=O)C=C,-4.1706554665
2703,isopropenyl acetate,CC(=C)OC(C)=O,-0.5277513782
2704,isopropyl chlorocarbonate,CC(C)OC(Cl)=O,-0.9882911293
2705,isoquinoline,c1ccc2cnccc2c1,-1.4606197634
2706,isothiocyanatomethane,CN=C=S,-0.9737191353500001
2707,lauronitrile,CCCCCCCCCCCC#N,-5.2899699473
2708,"menthane, monohydroperoxy derivative",CC(C)C1CCC(C)CC1OO,-2.5888216416
2709,methacrylonitrile,CC(=C)C#N,-0.40765214612000006
2710,methanamine,CN,1.3686434782
2711,methane,C,-2.53440259125
2712,methane dimolybdenum,C,-3.82949836405
2713,methane niobium,C,-7.551813430760001
2714,methane; sulfuric acid,C,-3.02946954505
2715,methane; vanadium,C,-5.4630526301
2716,methanesulfonic acid,C[S](O)(=O)=O,1.0172449791
2717,methanethiol,CS,-0.404797036
2718,methanol,CO,1.4942803839
2719,methoxybenzene,COc1ccccc1,-1.8009902548
2720,methoxycyclopentane,COC1CCCC1,-0.9037886388
2721,methoxyethene,COC=C,-0.55948292295
2722,methoxymethane,COC,0.5880959658666667
2723,methyl (2E)-2-methoxyimino-2-[2-[(2-methylphenoxy)methyl]phenyl]acetate,CO\N=C(C(=O)OC)/c1ccccc1COc2ccccc2C,-3.5369924646
2724,methyl (2Z)-3-aminobut-2-enoate,COC(=O)\C=C(/C)N,-0.8059235439
2725,"methyl (9E,12E,15E)-octadeca-9,12,15-trienoate methyl (9Z)-octadec-9-enoate methyl (9Z,12Z)-octadeca-9,12-dienoate methyl hexadecanoate methyl octadecanoate",CCCCCCCCCCCCCCCCCC(=O)OC,-7.8003598993
2726,methyl 1-methyl-4-(propan-2-yl)bicyclo[2.2.2]oct-5-ene-2-carboxylate,COC(=O)C1CC2(CCC1(C)C=C2)C(C)C,-4.2008661255
2727,"methyl 2,2,2-trifluoroacetate",COC(=O)C(F)(F)F,-0.6479837034
2728,"methyl 2,4-dihydroxy-3,6-dimethylbenzoate",COC(=O)c1c(C)cc(O)c(C)c1O,-4.037430925
2729,"methyl 2,6,6-trimethylcyclohex-2-ene-1-carboxylate",COC(=O)C1C(=CCCC1(C)C)C,-2.950745811933333
2730,methyl 2-(3-oxo-2-pentylcyclopentyl)acetate,CCCCCC1C(CCC1=O)CC(=O)OC,-2.6007778818
2731,methyl 2-({4-[2-(2-cyano-4-nitrophenyl)diazen-1-yl]-3-acetamidophenyl}(2-methoxy-2-oxoethyl)amino)acetate,COC(=O)CN(CC(=O)OC)c1ccc(N=Nc2ccc(cc2C#N)[N+]([O-])=O)c(NC(C)=O)c1,-5.1935197379
2732,methyl 2-[(1E)-cyclopentylidene]acetate,COC(=O)C=C1CCCC1,-1.9580391263
2733,"methyl 2-[(4-amino-3,5-dichloro-6-fluoropyridin-2-yl)oxy]acetate",COC(=O)COc1nc(F)c(Cl)c(N)c1Cl,-3.96698526025
2734,"methyl 2-[(4-ethoxy-6-methylamino-1,3,5-triazin-2-yl)carbamoylsulfamoyl]benzoate",CCOc1nc(NC)nc(NC(=O)N[S](=O)(=O)c2ccccc2C(=O)OC)n1,-3.8631823649714288
2735,"methyl 2-[(4aS)-3,6-bis(diethylamino)-2,7-dimethyl-4aH-xanthen-9-yl]benzoate",CCN(CC)C1=C[C@@H]2Oc3cc(N(CC)CC)c(C)cc3C(=C2C=C1C)c4ccccc4C(=O)OC,-7.6872220822
2736,methyl 2-[3-(acetyloxy)-2-pentylcyclopent-2-en-1-yl]acetate,CCCCCC1=C(CCC1CC(=O)OC)OC(C)=O,-3.7219886724
2737,"methyl 2-amino-4-[(2,5-dichlorophenyl)carbamoyl]benzoate",COC(=O)c1ccc(NC(=O)c2cc(Cl)ccc2Cl)cc1N,-5.7900649855
2738,methyl 2-aminobenzoate,COC(=O)c1ccccc1N,-1.7338470451
2739,methyl 2-benzoylbenzoate,COC(=O)c1ccccc1C(=O)c2ccccc2,-3.3099013947
2740,methyl 2-chloroacetate,COC(=O)CCl,-0.372767961
2741,methyl 2-cyanoacetate,COC(=O)CC#N,0.0747510173
2742,methyl 2-ethylhexanoate,CCCCC(CC)C(=O)OC,-2.9983533003666665
2743,methyl 2-methylbenzoate,COC(=O)c1ccccc1C,-1.7566476759
2744,methyl 2-methylprop-2-enoate,COC(=O)C(C)=C,-0.7685568558
2745,methyl 2-oxo-2-phenylacetate,COC(=O)C(=O)c1ccccc1,-1.9142373478
2746,methyl 2-phenylacetate,COC(=O)Cc1ccccc1,-2.2114017234
2747,"methyl 3-(3,5-di-tert-butyl-4-hydroxyphenyl)propanoate",COC(=O)CCc1cc(c(O)c(c1)C(C)(C)C)C(C)(C)C,-5.1235829068
2748,"methyl 3-({4-[(E)-2-(2,4-dinitrophenyl)diazen-1-yl]-3-acetamidophenyl}(3-methoxy-3-oxopropyl)amino)propanoate",COC(=O)CCN(CCC(=O)OC)c1ccc(N=Nc2ccc(cc2[N+]([O-])=O)[N+]([O-])=O)c(NC(C)=O)c1,-7.3328313355
2749,"methyl 3-[3-(2H-1,2,3-benzotriazol-2-yl)-5-tert-butyl-4-hydroxyphenyl]propanoate",COC(=O)CCc1cc(n2nc3ccccc3n2)c(O)c(c1)C(C)(C)C,-6.8493235759
2750,methyl 3-[3-(benzotriazol-2-yl)-5-tert-butyl-4-hydroxyphenyl]propanoate,COC(=O)CCc1cc(n2nc3ccccc3n2)c(O)c(c1)C(C)(C)C,-6.8493235759
2751,methyl 3-[[4-(2-bromo-6-chloro-4-nitrophenyl)diazenylphenyl]-(3-methoxy-3-oxopropyl)amino]propanoate,COC(=O)CCN(CCC(=O)OC)c1ccc(cc1)N=Nc2c(Cl)cc(cc2Br)[N+]([O-])=O,-7.1002216252
2752,"methyl 3-amino-5,6-dichloropyrazine-2-carboxylate",COC(=O)c1nc(Cl)c(Cl)nc1N,-4.5395814831
2753,methyl 3-aminopyrazine-2-carboxylate,COC(=O)c1nccnc1N,-1.6422660517
2754,methyl 3-methoxypropanoate,COCCC(=O)OC,0.8026937067
2755,methyl 3-methylbut-2-enoate,COC(=O)C=C(C)C,-1.4140004112
2756,methyl 3-oxobutanoate,COC(=O)CC(C)=O,0.9351079333
2757,methyl 3-phenylacrylate,COC(=O)\C=C\c1ccccc1,-2.7440001077
2758,methyl 3-sulfanylpropanoate,COC(=O)CCS,-0.7575876083
2759,"methyl 4-[(2,5-dichlorophenyl)carbamoyl]-2-({2-hydroxy-3-[(2-methoxyphenyl)carbamoyl]-1-naphthyl}diazenyl)benzoate",COC(=O)c1ccc(cc1N\N=C2/C(=O)C(=Cc3ccccc23)C(=O)Nc4ccccc4OC)C(=O)Nc5cc(Cl)ccc5Cl,-8.1750686223
2760,"methyl 4-[(2,5-dichlorophenyl)carbamoyl]-2-nitrobenzoate",COC(=O)c1ccc(cc1[N+]([O-])=O)C(=O)Nc2cc(Cl)ccc2Cl,-5.965154646
2761,methyl 4-hydroxybenzoate,COC(=O)c1ccc(O)cc1,-1.827586088075
2762,methyl 4-methylbenzoate,COC(=O)c1ccc(C)cc1,-2.5760288164
2763,methyl 4-tert-butylbenzoate,COC(=O)c1ccc(cc1)C(C)(C)C,-3.7398163758
2764,methyl 5-amino-4-cyano-3-methylthiophene-2-carboxylate,COC(=O)c1sc(N)c(C#N)c1C,-4.9917376214
2765,methyl acetate,COC(C)=O,0.57544971315
2766,methyl benzoate,COC(=O)c1ccccc1,-1.8117983509
2767,methyl cyanoacetate,COC(=O)CC#N,-0.2636316857
2768,methyl decanoate,CCCCCCCCCC(=O)OC,-4.4354126023500005
2769,methyl dodecanoate,CCCCCCCCCCCC(=O)OC,-4.44131571
2770,methyl formate,COC=O,0.64089706945
2771,methyl hexanoate,CCCCCC(=O)OC,-1.9907159784
2772,methyl hydroxymethoxyacetate,COC(=O)COCO,0.9204425284
2773,methyl methanesulfonate,CO[S](C)(=O)=O,0.10859358499999999
2774,methyl myristate,CCCCCCCCCCCCCC(=O)OC,-6.6497381608
2775,methyl nicotinate,COC(=O)c1cccnc1,-0.4595508588
2776,methyl non-2-ynoate,CCCCCCC#CC(=O)OC,-3.6518876662
2777,methyl oct-2-ynoate,CCCCCC#CC(=O)OC,-3.0091327736
2778,methyl octadecanoate,CCCCCCCCCCCCCCCCCC(=O)OC,-8.9978390846
2779,methyl octanoate,CCCCCCCC(=O)OC,-3.3904331514
2780,methyl oxo(phenyl)acetate,COC(=O)C(=O)c1ccccc1,-4.909915974
2781,methyl palmitate,CCCCCCCCCCCCCCCC(=O)OC,-7.8300382351
2782,methyl pentanoate,CCCCC(=O)OC,-1.520988559
2783,methyl prop-2-enoate,COC(=O)C=C,-0.1568014574
2784,methyl undec-10-enoate,COC(=O)CCCCCCCCC=C,-5.3975153521
2785,methyl(naphthalen-1-ylmethyl)amine,CNCc1cccc2ccccc12,-1.7150988877
2786,methylcyclohexane,CC1CCCCC1,-3.8459348013
2787,methylhydrazine,CNN,1.3365535082
2788,nadide,NC(=O)c1ccc[n+](c1)C2OC(CO[P]([O-])(=O)O[P](O)(=O)OCC3OC(C(O)C3O)n4cnc5c(N)ncnc45)C(O)C2O,0.1782048938
2789,naphthalen-1-ol,Oc1cccc2ccccc12,-2.0596942590666667
2790,naphthalene,c1ccc2ccccc2c1,-4.260738862
2791,"naphthalene-1,5-diamine",Nc1cccc2c(N)cccc12,-3.1825055822
2792,"naphthalene-1,5-diol",Oc1cccc2c(O)cccc12,-2.70676900115
2793,"naphthalene-1,8-diamine",Nc1cccc2cccc(N)c12,-2.31177467085
2794,naphthalene-2-sulfonic acid,O[S](=O)(=O)c1ccc2ccccc2c1,0.230443278
2795,nicotinic acid,OC(=O)c1cccnc1,0.1649756461
2796,nitrobenzene,[O-][N+](=O)c1ccccc1,-1.8081414040000001
2797,nitroethane,CC[N+]([O-])=O,-0.1942078226
2798,nitromethane,C[N+]([O-])=O,0.2335017655
2799,nonafluorobutane-1-sulfonyl fluoride,FC(F)(F)C(F)(F)C(F)(F)C(F)(F)[S](F)(=O)=O,-6.0423843487
2800,nonan-1-ol,CCCCCCCCCO,-2.8852467339
2801,nonan-2-one,CCCCCCCC(C)=O,-2.7569826597000002
2802,nonanal,CCCCCCCCC=O,-3.1487064763
2803,nonanedioic acid,OC(=O)CCCCCCCC(O)=O,-1.8944614494
2804,nonanoic acid,CCCCCCCCC(O)=O,-2.7221977641
2805,nonyl acetate,CCCCCCCCCOC(C)=O,-4.4708606495
2806,oct-1-en-3-ol,CCCCCC(O)C=C,-1.8219317146
2807,oct-7-en-1-ol,OCCCCCCC=C,-1.7340835324
2808,oct-7-enal,C=CCCCCCC=O,-1.9972521926
2809,"octa-1,7-diene",C=CCCCCC=C,-4.0232731502
2810,octadec-2-enylsuccinic acid,CCCCCCCCCCCCCCC/C=C/CC(CC(O)=O)C(O)=O,-6.1939684467500005
2811,octadec-9-en-1-yl dihydrogen phosphate,CCCCCCCC\C=C/CCCCCCCCO,-6.7858978433
2812,octadec-9-en-1-yl docos-13-enoate,CCCCCCCC\C=C/CCCCCCCCCCCC(=O)OCCCCCCCC\C=C/CCCCCCCC,-7.0711792069
2813,octadec-9-en-1-yl octadec-9-enoate,CCCCCCCCC\C=C/CCCCCCC(=O)OCCCCCCCC\C=C/CCCCCCCC,-7.0277066834
2814,octadec-9-enoic acid - 2-aminoethanol (1:1),CCCCCCCC/C=C/CCCCCCCC(O)=O,-3.0888344498
2815,"octadec-9-enoic acid - N-(2-aminoethyl)ethane-1,2-diamine (1:1)",CCCCCCCC\C=C/CCCCCCCC(O)=O,-4.595468025375
2816,octadecafluorodecahydronaphthalene,FC1(F)C(F)(F)C(F)(F)C2(F)C(F)(F)C(F)(F)C(F)(F)C(F)(F)C2(F)C1(F)F,-7.6647115323
2817,octadecafluorooctane,FC(F)(F)C(F)(F)C(F)(F)C(F)(F)C(F)(F)C(F)(F)C(F)(F)C(F)(F)F,-7.6415256675
2818,octadecan-1-amine,CCCCCCCCCCCCCCCCCCN,-3.25538923716
2819,octadecan-1-ol,CCCCCCCCCCCCCCCCCCO,-6.9114725324
2820,octadecane,CCCCCCCCCCCCCCCCCC,-7.6275399492
2821,"octadecane-1,12-diol",CCCCCCC(O)CCCCCCCCCCCO,-5.3066096284499995
2822,octadecanoic acid,CCCCCCCCCCCCCCCCCC(O)=O,-4.7165856779999995
2823,octadecyl 2-methylprop-2-enoate,CCCCCCCCCCCCCCCCCCOC(=O)C(C)=C,-8.5296561698
2824,"octadecyl 3-(3,5-di-tert-butyl-4-hydroxyphenyl)propanoate",CCCCCCCCCCCCCCCCCCOC(=O)CCc1cc(c(O)c(c1)C(C)(C)C)C(C)(C)C,-7.8063697762999995
2825,octadecyl 3-{[3-(octadecyloxy)-3-oxopropyl]sulfanyl}propanoate,CCCCCCCCCCCCCCCCCCOC(=O)CCSCCC(=O)OCCCCCCCCCCCCCCCCCC,-7.033505784000001
2826,"octahydro-1H-4,7-methanoindene-1-carbaldehyde",O=CC1CCC2C3CCC(C3)C12,-2.4199676473
2827,octahydro-2H-1-benzopyran-2-one,O=C1CCC2CCCCC2O1,-0.5865603256
2828,"octahydrocyclopenta[c]pyrrole-1,3-dione",O=C1NC(=O)C2CCCC12,0.1553573817
2829,"octamethyl-1,3,5,7,2,4,6,8-tetraoxatetrasilocane",C[Si]1(C)O[Si](C)(C)O[Si](C)(C)O[Si](C)(C)O1,-6.8686058578
2830,octan-1-amine,CCCCCCCCN,-2.606270493
2831,octan-1-amine dibutyl sulfanylphosphonate,CCCCCCCCN,-1.8719655891000002
2832,octan-1-ol,CCCCCCCCO,-2.5230502065142857
2833,octan-2-ol,CCCCCCC(C)O,-2.1208374604
2834,octan-2-one,CCCCCCC(C)=O,-2.1536963273
2835,octan-3-ol,CCCCCC(O)CC,-1.9386231163
2836,octan-3-one,CCCCCC(=O)CC,-2.297034556
2837,"octane-1,2-diol",CCCCCCC(O)CO,-1.2899752166
2838,octanoic acid,CCCCCCCC(O)=O,-2.29421446485
2839,octanoyl octaneperoxoate,CCCCCCCC(=O)OOC(=O)CCCCCCC,-7.6118931699
2840,octyl (2R)-2-(4-chloro-2-methylphenoxy)propanoate,CCCCCCCCOC(=O)[C@@H](C)Oc1ccc(Cl)cc1C,-6.5143670911
2841,octyl octanoate,CCCCCCCCOC(=O)CCCCCCC,-6.709998828
2842,octylphosphonic acid,CCCCCCCC[P](O)(O)=O,-1.15154168815
2843,oxacyclohexadecan-2-one,O=C1CCCCCCCCCCCCCCO1,-6.49183535235
2844,oxalic acid,OC(=O)C(O)=O,0.0790172102
2845,oxalonitrile,NCCN,-0.7921027377
2846,oxan-2-one,O=C1CCCCO1,0.9994921725
2847,oxepan-2-one,O=C1CCCCCO1,0.9425469123
2848,oxetan-2-one,O=C1CCO1,0.7104893861
2849,"oxiran-2-ylmethyl 2,2-dimethyloctanoate",CCC(C)(CCC(C)C)C(=O)OCC1CO1,-3.5134687407
2850,oxiran-2-ylmethyl 2-methylprop-2-enoate,CC(=C)C(=O)OCC1CO1,-0.4537890803
2851,oxo[(oxochromio)oxy]chromium; oxo[(oxoferrio)oxy]iron; oxo[(oxomanganio)oxy]manganese,O=[Cr]O[Cr]=O,-8.9727109156
2852,oxocadmium,O=[Cd],-4.7863829333
2853,oxocopper,O=[Cu],-4.914871533566667
2854,oxolan-2-one,O=C1CCCO1,1.0650472922
2855,oxolan-2-ylmethanol,OCC1CCCO1,0.3887739198
2856,oxolan-2-ylmethyl 2-methylprop-2-enoate,CC(=C)C(=O)OCC1CCCO1,-0.9524550039
2857,oxolan-2-ylmethyl prop-2-enoate,C=CC(=O)OCC1CCCO1,-0.2954517157
2858,"oxolane-2,5-dione",O=C1CCC(=O)O1,-0.2016662739
2859,"oxydiethane-2,1-diyl dinitrate",[O-][N+](=O)OCCOCCO[N+]([O-])=O,-1.6905413272333334
2860,oxydiethylene bis(chloroformate),ClC(=O)OCCOCCOC(Cl)=O,-4.8865490032
2861,"oxydipropane-1,2-diyl bisacrylate",CC(COCC(C)OC(=O)C=C)OC(=O)C=C,-1.6682980883
2862,pent-1-ene,CCCC=C,-2.6756730859
2863,pent-2-ene,CC\C=C\C,-2.7468811725599998
2864,pent-2-enenitrile,CC\C=C/C#N,-0.8598992117
2865,pentabromobenzyl acrylate,Brc1c(Br)c(Br)c(COC(=O)C=C)c(Br)c1Br,-7.806077004
2866,pentan-1-ol,CCCCCO,-0.61290132885
2867,pentan-2-ol,CCCC(C)O,-0.2541408245
2868,pentan-2-one,CCCC(C)=O,-0.0742379953
2869,pentan-3-one,CCC(=O)CC,-0.2619254385
2870,pentane,CCCCC,-3.2727816252
2871,"pentane-1,2-diol",CCCC(O)CO,0.9823448956
2872,"pentane-1,5-diol",OCCCCCO,0.9823448956
2873,"pentane-2,4-dione",CC(=O)CC(C)=O,0.16748365129999998
2874,pentyl formate,CCCCCOC=O,-1.6020599913
2875,pentyl pentanoate,CCCCCOC(=O)CCCC,-3.6244813037
2876,pentyl propanoate,CCCCCOC(=O)CC,-2.250522404
2877,phenoxybenzene,O(c1ccccc1)c2ccccc2,-3.9443197032
2878,phenyl 2-hydroxybenzoate,Oc1ccccc1C(=O)Oc2ccccc2,-3.1547687559
2879,phenyl acetate,CC(=O)Oc1ccccc1,-1.3735951623
2880,phenyl diamidophosphate,N[P](N)(=O)Oc1ccccc1,-1.4876534031
2881,phenyl methacrylate,CC(=C)C(=O)Oc1ccccc1,-2.4948513605
2882,phenylacetic acid,OC(=O)Cc1ccccc1,-0.9139095576
2883,phenylphosphonic acid,O[P](O)(=O)c1ccccc1,-1.0901352110666667
2884,phosphoric acid; urea,NC(N)=O,0.5376020021