,Name,SMILES,Solubility
1151,"2-ethylhexyl 4-[(4-{[4-(tert-butylcarbamoyl)phenyl]amino}-6-[(4-{[(2-ethylhexyl)oxy]carbonyl}phenyl)amino]-1,3,5-triazin-2-yl)amino]benzoate",CCCCC(CC)COC(=O)c1ccc(Nc2nc(Nc3ccc(cc3)C(=O)NC(C)(C)C)nc(Nc4ccc(cc4)C(=O)OCC(CC)CCCC)n2)cc1,-8.59721313575
1152,"2-ethylhexyl 4-[[4,6-bis[[4-(2-ethylhexoxycarbonyl)phenyl]amino]-1,3,5-triazin-2-yl]amino]benzoate",CCCCC(CC)COC(=O)c1ccc(Nc2nc(Nc3ccc(cc3)C(=O)OCC(CC)CCCC)nc(Nc4ccc(cc4)C(=O)OCC(CC)CCCC)n2)cc1,-8.3004157006
1153,2-ethylhexyl 4-aminobenzoate,CCCCC(CC)COC(=O)c1ccc(N)cc1,-5.0543936585
1154,2-ethylhexyl acetate,CCCCC(CC)COC(C)=O,-4.6451400046
1155,2-ethylhexyl benzoate,CCCCC(CC)COC(=O)c1ccccc1,-5.767784581
1156,2-ethylhexyl cyanoacetate,CCCCC(CC)COC(=O)CC#N,-3.2864784846
1157,2-ethylhexyl diphenyl phosphate,CCCCC(CC)CO[P](=O)(Oc1ccccc1)Oc2ccccc2,-6.8550448624
1158,2-ethylhexyl nitrate,CCCCC(CC)CO[N+]([O-])=O,-4.1466934911
1159,2-ethylhexyl octadecanoate,CCCCCCCCCCCCCCCCCC(=O)OCCCCCCCC,-6.8994921961
1160,2-ethylhexyl prop-2-enoate,CCCCC(CC)COC(=O)C=C,-4.2832046138
1161,2-ethyloxirane,CCC1CO1,0.10743814016666668
1162,"2-ethylpentyl 3-(3,5-ditert-butyl-4-hydroxyphenyl)propanoate",CCCC(CC)COC(=O)CCc1cc(c(O)c(c1)C(C)(C)C)C(C)(C)C,-7.7243620176666665
1163,"2-fluoro-4-[4-(4-propylcyclohexyl)cyclohexyl]-1-(3,4,5-trifluorophenyl)benzene",CCCC1CCC(CC1)C2CCC(CC2)c3ccc(c(F)c3)c4cc(F)c(F)c(F)c4,-6.6360312962
1164,2-heptadecyl-1H-imidazole,CCCCCCCCCCCCCCCCCc1[nH]ccn1,-7.214642713
1165,2-heptylcyclopentan-1-one,CCCCCCCC1CCCC1=O,-3.7694416506
1166,"2-hexadecan-2-yl-4,6-dimethylphenol",CCCCCCCCCCCCCCC(C)c1cc(C)cc(C)c1O,-6.8497216845
1167,"2-hexoxypropane-1,3-diol",CCCCCCOC(CO)CO,-1.0558122117
1168,2-hexylcyclopentanone,CCCCCCC1CCCC1=O,-3.4515155376
1169,2-hexyldecan-1-ol,CCCCCCCCC(CO)CCCCCC,-5.3846168146
1170,2-hydroperoxy-2-(2-hydroperoxybutan-2-ylperoxy)butane,CCC(C)(OO)OOC(C)(CC)OO,-1.5077732457
1171,"2-hydroxy-1,2-diphenylethan-1-one",OC(c1ccccc1)C(=O)c2ccccc2,-2.8497223519
1172,2-hydroxy-1-(4-{[4-(2-hydroxy-2-methylpropanoyl)phenyl]methyl}phenyl)-2-methylpropan-1-one,CC(C)(O)C(=O)c1ccc(Cc2ccc(cc2)C(=O)C(C)(C)O)cc1,-4.536378597
1173,2-hydroxy-1-[4-(2-hydroxyethoxy)phenyl]-2-methylpropan-1-one,CC(C)(O)C(=O)c1ccc(OCCO)cc1,-1.4705026724999999
1174,"2-hydroxy-1-{1-[4-(2-hydroxy-2-methylpropanoyl)phenyl]-1,3,3-trimethyl-2,3-dihydro-1H-inden-5-yl}-2-methylpropan-1-one",CC(C)(O)C(=O)c1ccc(cc1)C2(C)CC(C)(C)c3cc(ccc23)C(=O)C(C)(C)O,-5.9372904598
1175,"2-hydroxy-1-{1-[4-(2-hydroxy-2-methylpropanoyl)phenyl]-1,3,3-trimethyl-2,3-dihydro-1H-inden-5-yl}-2-methylpropan-1-one; 2-hydroxy-1-{3-[4-(2-hydroxy-2-methylpropanoyl)phenyl]-1,1,3-trimethyl-2,3-dihydro-1H-inden-5-yl}-2-methylpropan-1-one; 2-hydroxy-2-methyl-1-[4-(prop-1-en-2-yl)phenyl]propan-1-one",CC(=C)c1ccc(cc1)C(=O)C(C)(C)O,-5.6796900458
1176,"2-hydroxy-1-{3-[4-(2-hydroxy-2-methylpropanoyl)phenyl]-1,1,3-trimethyl-2,3-dihydro-1H-inden-5-yl}-2-methylpropan-1-one",CC(C)(O)C(=O)c1ccc(cc1)C2(C)CC(C)(C)c3ccc(cc23)C(=O)C(C)(C)O,-5.9638494884
1177,2-hydroxy-2-methyl-1-phenylpropan-1-one,CC(C)(O)C(=O)c1ccccc1,-1.0915320913
1178,2-hydroxy-2-phenylacetic acid,OC(C(O)=O)c1ccccc1,-0.039911124675
1179,"2-hydroxy-3,5-dinitrobenzoic acid",OC(=O)c1cc(cc(c1O)[N+]([O-])=O)[N+]([O-])=O,-1.057125752
1180,2-hydroxy-3-phenoxypropyl prop-2-enoate,CCCOC(=O)C(/O)=C/Oc1ccccc1,-1.6225463588
1181,2-hydroxy-4-(methylsulfanyl)butanenitrile,CSCCC(O)C#N,-0.0765411499
1182,2-hydroxy-4-methylbenzamide,Cc1ccc(C(N)=O)c(O)c1,-2.9170001587
1183,2-hydroxy-4-methylbenzoic acid,Cc1ccc(C(O)=O)c(O)c1,-1.1822691023
1184,2-hydroxy-5-nitrobenzoic acid,OC(=O)c1cc(ccc1O)[N+]([O-])=O,-2.3700684905
1185,2-hydroxy-5-sulfobenzoic acid,OC(=O)c1cc(ccc1O)[S](O)(=O)=O,0.6554902722
1186,2-hydroxyacetic acid,OCC(O)=O,0.5960163257
1187,2-hydroxybenzaldehyde,Oc1ccccc1C=O,-1.3966013843
1188,2-hydroxybenzoic acid,OC(=O)c1ccccc1O,-1.8849903532
1189,2-hydroxybutanedioic acid,OC(CC(O)=O)C(O)=O,0.6832490261
1190,2-hydroxyethan-1-aminium 2-sulfanylacetate,NCCO,0.8147327303
1191,2-hydroxyethyl 2-methylprop-2-enoate,CC(=C)C(=O)OCCO,-0.1144208137
1192,2-hydroxyethyl prop-2-enoate,OCCOC(=O)C=C,0.9351079333
1193,2-hydroxynaphthalene-1-carbaldehyde,Oc1ccc2ccccc2c1C=O,-3.8935675896
1194,"2-hydroxypropane-1,2,3-tricarboxylic acid",OC(=O)CC(O)(CC(O)=O)C(O)=O,0.447459124725
1195,2-hydroxypropanenitrile,CC(O)C#N,1.1482586908
1196,2-hydroxypropanoic acid - 5-{[(2-ethylhexyl)carbamoyl]oxy}-2-methylphenyl [2-(dimethylamino)ethyl]carbamate (1:1) (non-preferred name),CCCCC(CC)COC(=O)Nc1ccc(C)c(NC(=O)OCCN(C)C)c1,-0.2351938248
1197,"2-hydroxypropanoic acid; 5-({bis[(2-aminopropyl)amino]-1,3,5-triazin-2-yl}amino)-3-{2-[4-({4-[(4-{2-[8-({bis[(2-aminopropyl)amino]-1,3,5-triazin-2-yl}amino)-1-hydroxy-3,6-disulfonaphthalen-2-yl]diazen-1-yl}phenyl)amino]-6-{[3-(diethylamino)propyl]amino}-1,3,5-triazin-2-yl}amino)phenyl]diazen-1-yl}-4-hydroxynaphthalene-2,7-disulfonic acid",CCN(CC)CCCNc1nc(Nc2ccc(cc2)N=Nc3c(O)c4c(Nc5nc(NCC(C)N)nc(NCC(C)N)n5)cc(cc4cc3[S](O)(=O)=O)[S](O)(=O)=O)nc(Nc6ccc(cc6)N=Nc7c(O)c8c(Nc9nc(NCC(C)N)nc(NCC(C)N)n9)cc(cc8cc7[S](O)(=O)=O)[S](O)(=O)=O)n1,-0.7942190429
1198,"2-hydroxypropanoic acid; 7-{[bis({[3-(diethylamino)propyl]amino})-1,3,5-triazin-2-yl]amino}-4-hydroxy-3-[(E)-2-(2-oxo-2,3-dihydro-1H-1,3-benzodiazol-5-yl)diazen-1-yl]naphthalene-2-sulfonic acid",CCN(CC)CCCNc1nc(NCCCN(CC)CC)nc(Nc2ccc3c(O)c(N=Nc4ccc5NC(=O)Nc5c4)c(cc3c2)[S](O)(=O)=O)n1,-0.64043406
1199,2-isobutyl-4-methyltetrahydro-2H-pyran,CC(C)CC1CC(C)CCO1,-3.0799294807
1200,2-isopropenyl-5-methylcyclohexanol,CC1CCC(C(O)C1)C(C)=C,-1.7111123645
1201,2-isopropoxyethyl acetate,CC(C)OCCOC(C)=O,-0.1657752416
1202,2-isopropyl-5-methylcyclohexanol,CC(C)[C@@H]1CC[C@@H](C)C[C@@H]1O,-2.5604043774
1203,2-methoxy-2-methylbutane,CCC(C)(C)OC,-0.9799479822
1204,2-methoxy-2-methylpropane,COC(C)(C)C,-0.3664535011
1205,"2-methoxy-3,4-dihydro-2H-pyran",COC1CCC=CO1,-0.853333105
1206,2-methoxy-4-(methoxymethyl)phenol,COCc1ccc(O)c(OC)c1,-1.8934476814
1207,2-methoxy-4-(prop-2-en-1-yl)phenol,COc1cc(CC=C)ccc1O,-2.1531779235
1208,2-methoxy-4-(prop-2-en-1-yl)phenyl acetate,COc1cc(CC=C)ccc1OC(C)=O,-2.7015911491
1209,2-methoxy-4-[(1E)-prop-1-en-1-yl]phenol,COc1cc(\C=C\C)ccc1O,-2.3647374971
1210,2-methoxy-4-nitroaniline,COc1cc(ccc1N)[N+]([O-])=O,-3.2045127381
1211,2-methoxy-4-propylphenol,CCCc1ccc(O)c(OC)c1,-2.1792905928
1212,2-methoxy-5-methylaniline,COc1ccc(C)cc1N,-1.6601758755
1213,2-methoxy-5-nitroaniline,COc1ccc(cc1N)[N+]([O-])=O,-2.5241417766
1214,2-methoxyaniline,COc1ccccc1N,-0.9443240129
1215,2-methoxyethyl prop-2-enoate,COCCOC(=O)C=C,0.0439416784
1216,2-methoxyphenol,COc1ccccc1O,-0.7265523216
1217,"2-methyl-1,3,5-trinitrobenzene",Cc1c(cc(cc1[N+]([O-])=O)[N+]([O-])=O)[N+]([O-])=O,-3.2524746041
1218,2-methyl-1-(vinyloxy)propane,CC(C)COC=C,-2.1433661554
1219,2-methyl-1-[4-(methylsulfanyl)phenyl]-2-(morpholin-4-yl)propan-1-one,CSc1ccc(cc1)C(=O)C(C)(C)N2CCOCC2,-4.1933811426
1220,2-methyl-1-phenylpropan-1-one,CC(C)C(=O)c1ccccc1,-2.35661526
1221,2-methyl-1-phenylpropan-2-yl acetate,CC(=O)OC(C)(C)Cc1ccccc1,-2.3946499685
1222,2-methyl-1-phenylpropan-2-yl butanoate,CCCC(=O)OC(C)(C)Cc1ccccc1,-4.1359426126
1223,2-methyl-1H-imidazole,Cc1[nH]ccn1,0.5121363665
1224,2-methyl-2-[(2-methylbutan-2-yl)peroxy]butane,CCC(C)(C)OOC(C)(C)CC,-4.1004353388
1225,2-methyl-2-[(2-methylundecan-2-yl)disulfanyl]undecane,CCCCCCCCCC(C)(C)SSC(C)(C)CCCCCCCCC,-8.15904000415
1226,"2-methyl-4,6-bis(methylsulfanyl)benzene-1,3-diamine; 4-methyl-2,6-bis(methylsulfanyl)benzene-1,3-diamine",CSc1cc(SC)c(N)c(C)c1N,-2.98927608305
1227,"2-methyl-4,6-bis[(octylsulfanyl)methyl]phenol",CCCCCCCCSCc1cc(C)c(O)c(CSCCCCCCCC)c1,-6.3271136165
1228,"2-methyl-4-(2,2,3-trimethylcyclopent-3-en-1-yl)butan-1-ol",CC(CO)CCC1CC=C(C)C1(C)C,-3.8427464064
1229,"2-methyl-4-(2,6,6-trimethylcyclohex-2-en-1-yl)butanal",CC(CCC=O)C1C(=CCCC1(C)C)C,-4.6532020914
1230,2-methyl-4-nitroaniline,Cc1cc(ccc1N)[N+]([O-])=O,-3.0361524841
1231,"2-methyl-4-phenyl-1,3-dioxolane",CC1OCC(O1)c2ccccc2,-1.805450609
1232,2-methyl-4-phenylbutan-2-ol,CC(C)(O)CCc1ccccc1,-1.555639677
1233,2-methyl-4-phenylpentan-1-ol,CC(CO)CC(C)c1ccccc1,-2.3480016469000002
1234,2-methyl-5-nitrobenzene-1-sulfonic acid,Cc1ccc(cc1[S](O)(=O)=O)[N+]([O-])=O,0.48985098345
1235,2-methyl-6-methylideneoct-7-en-2-yl acetate,CC(=O)OC(C)(C)CCCC(=C)C=C,-3.5974164985
1236,"2-methyl-9,10-dihydroanthracene-9,10-dione",Cc1ccc2C(=O)c3ccccc3C(=O)c2c1,-6.1171462485
1237,2-methyl-N-[(2-methylprop-2-enamido)methyl]prop-2-enamide,CC(=C)C(=O)NCNC(=O)C(C)=C,-1.1892367555
1238,2-methylaniline,Cc1ccccc1N,-0.82534135695
1239,"2-methylbenzene-1,3-diol",Cc1c(O)cccc1O,0.1927727267
1240,"2-methylbenzene-1,4-diamine; sulfuric acid",Cc1cc(N)ccc1N,-1.641347932
1241,"2-methylbenzene-1,4-diol",Cc1cc(O)ccc1O,-0.2074175174
1242,2-methylbenzenesulfonamide,Cc1ccccc1[S](N)(=O)=O,-2.0294370465
1243,2-methylbut-2-ene,CC=C(C)C,-2.39676421845
1244,2-methylbut-3-en-2-ol,CC(C)(O)C=C,0.3473181115
1245,2-methylbut-3-yn-2-amine,CC(C)(N)C#C,1.0316559884
1246,2-methylbut-3-yn-2-ol,CC(C)(O)C#C,1.0751110617
1247,"2-methylbuta-1,3-diene",CC(=C)C=C,-2.0257332357
1248,2-methylbutan-1-ol,CCC(C)CO,-0.47028346460000003
1249,2-methylbutan-2-ol,CCC(C)(C)O,0.1266596907
1250,2-methylbutanal,CCC(C)C=O,-0.8212312637
1251,2-methylbutane,CCC(C)C,-3.1756575371
1252,2-methylbutanoic acid,CCC(C)C(O)=O,-0.3559535751
1253,2-methylbutyl acrylate,CCC(C)COC(=O)C=C,-2.6532064055
1254,2-methylcyclohexanol,CC1CCCCC1O,-0.864495868
1255,2-methylcyclohexyl acetate,CC1CCCCC1OC(C)=O,-2.5502978569
1256,2-methyldecanal,CCCCCCCCC(C)C=O,-3.77965945365
1257,2-methyldecanenitrile,CCCCCCCCC(C)C#N,-4.6324209502
1258,2-methyldodecan-1-ol,CC(C)CCCCCCCCCCO,-5.1513090304
1259,2-methylheptadecanoic acid,CCCCCCCCCCCCCCCCCC(O)=O,-6.073846604
1260,2-methylheptadecyl 3-methylheptadecanoate,CC(C)CCCCCCCCCCCCCCCOC(=O)CCCCCCCCCCCCCCC(C)C,-7.0864973463
1261,2-methylheptan-1-ol,CCCCCC(C)CO,-2.5281270707
1262,2-methylheptyl 2-sulfanylacetate,CC(C)CCCCCOC(=O)CS,-4.2850368969
1263,2-methylheptyl 3-sulfanylpropanoate,CC(C)CCCCCOC(=O)CCS,-4.4543816995
1264,2-methylidenebutanedioic acid,OC(=O)CC(=C)C(O)=O,-0.2250282975
1265,2-methyloctane-2-thiol,CCCCCCC(C)(C)S,-4.087072830425
1266,2-methyloctyl prop-2-enoate,CC(C)CCCCCCCOC(=O)C=C,-5.1999126975
1267,2-methyloxirane,CC1CO1,0.8325704879
1268,2-methyloxirane,C[C@H]1CO1,0.8380333836
1269,2-methylpentanal,CCCC(C)C=O,-1.3848109899
1270,"2-methylpentane-1,5-diamine",CC(CN)CCCN,-0.21912110894999998
1271,2-methylpentanedinitrile,CC(CCC#N)C#N,-0.3155007402
1272,2-methylpentanedioic acid,CC(CCC(O)=O)C(O)=O,0.8352249535
1273,2-methylpentanoic acid,CCCC(C)C(O)=O,-0.9786967727
1274,2-methylphenol,Cc1ccccc1O,-0.630141564
1275,2-methylprop-1-ene,CC(C)=C,-2.3290690398
1276,2-methylprop-2-enal,CC(=C)C=O,-0.0749364707
1277,2-methylprop-2-enamide,CC(=C)C(N)=O,0.22271550565
1278,2-methylprop-2-enoic acid,CC(=C)C(O)=O,0.0562733679
1279,2-methylprop-2-enoyl 2-methylprop-2-enoate,CC(=C)C(=O)OC(=O)C(C)=C,-0.1967597116
1280,2-methylpropan-1-ol,CC(C)CO,0.04746053536666667
1281,2-methylpropan-2-amine,CC(C)(C)N,1.1358509819
1282,2-methylpropan-2-ol,CC(C)(C)O,1.1300470117
1283,2-methylpropanal,CC(C)C=O,-0.0798261768
1284,2-methylpropane,CC(C)C,-3.09347250185
1285,2-methylpropane,C[C](C)C,-4.3765465432
1286,2-methylpropane-2-thiol,CC(C)(C)S,-1.7878458675
1287,2-methylpropanoic acid,CC(C)C(O)=O,0.8459829903
1288,2-methylpropanoic anhydride,CC(C)C(=O)OC(=O)C(C)C,0.5917902317
1289,2-methylpropyl (2R)-2-hydroxypropanoate,CC(C)COC(=O)[C@@H](C)O,-0.4496223695
1290,2-methylpropyl 2-methylprop-2-enoate,CC(C)COC(=O)C(C)=C,-2.3970186325
1291,2-methylpropyl 2-phenylacetate,CC(C)COC(=O)Cc1ccccc1,-3.2710471955
1292,"2-methylpropyl 3,5-diamino-4-chlorobenzoate",CC(C)COC(=O)c1cc(N)c(Cl)c(N)c1,-2.737283137525
1293,2-methylpropyl acetate,CC(C)COC(C)=O,-1.3168685763
1294,2-methylpropyl dodecanoate,CCCCCCCCCCCC(=O)OCC(C)C,-7.9318475776
1295,2-methylpropyl prop-2-enoate,CC(C)COC(=O)C=C,-1.8296385223499998
1296,2-methylpyridine,Cc1ccccn1,1.0309150604
1297,2-methylquinolin-8-ol,Cc1ccc2cccc(O)c2n1,-1.7306186153
1298,2-methylundecanal,CCCCCCCCCC(C)C=O,-5.151636178
1299,2-methylundecane-2-thiol,CC(C)C(C)(C)C(C)(C)C(C)(C)S,-7.7118329776
1300,2-nitro-4-(trifluoromethyl)benzonitrile,[O-][N+](=O)c1cc(ccc1C#N)C(F)(F)F,-2.4707735629
1301,2-nitroaniline,Nc1ccccc1[N+]([O-])=O,-0.5794298700500001
1302,2-nitrophenol,Oc1ccccc1[N+]([O-])=O,-1.81202664585
1303,2-nitrophenyl acetate,CC(=O)Oc1ccccc1[N+]([O-])=O,-2.1855239105
1304,2-octanamidoacetic acid,CCCCCCCC(=O)NCC(O)=O,-2.1115375925
1305,2-octyldodecan-1-ol,CCCCCCCCCCC(CO)CCCCCCCC,-6.4750243489
1306,2-oxo-N-[4-({4-[(2-oxoazepane-1-carbonyl)amino]phenyl}methyl)phenyl]azepane-1-carboxamide,O=C1CCCCCN1C(=O)Nc2ccc(Cc3ccc(NC(=O)N4CCCCCC4=O)cc3)cc2,-7.7632612616
1307,2-oxo-N-{6-[(2-oxoazepane-1-carbonyl)amino]hexyl}azepane-1-carboxamide,O=C1CCCCCN1C(=O)NCCCCCCNC(=O)N2CCCCCC2=O,-3.9064006561
1308,2-oxobutanedioic acid,OC(=O)CC(=O)C(O)=O,0.8791925338
1309,2-oxopentanedioic acid,OC(=O)CCC(=O)C(O)=O,0.6148800726
1310,2-phenoxyethan-1-ol,OCCOc1ccccc1,-0.7342790940249999
1311,2-phenoxyethyl 2-methylprop-2-enoate,CC(=C)C(=O)OCCOc1ccccc1,-2.9526471698
1312,2-phenoxyethyl 2-methylpropanoate,CC(C)C(=O)OCCOc1ccccc1,-3.0263435366
1313,2-phenoxyethyl prop-2-enoate,C=CC(=O)OCCOc1ccccc1,-2.3356597353
1314,"2-phenyl-1H-1,3-benzodiazole-5-sulfonic acid",O[S](=O)(=O)c1ccc2nc([nH]c2c1)c3ccccc3,-3.18095351455
1315,2-phenyl-1H-imidazole,[nH]1ccnc1c2ccccc2,-1.8893830404
1316,"2-phenyl-4,5-dihydro-1H-imidazole",C1C[NH+]=C(N1)c2ccccc2,-1.1265180752
1317,"2-phenyl-4,5-dihydro-1H-imidazole; benzene-1,2,4,5-tetracarboxylic acid",OC(=O)c1cc(C(O)=O)c(cc1C(O)=O)C(O)=O,-2.1253109845
1318,2-phenylacetonitrile,N#CCc1ccccc1,-3.0687460001
1319,2-phenylethan-1-amine,NCCc1ccccc1,-0.2823811698
1320,2-phenylethan-1-ol,OCCc1ccccc1,-0.8149198870500001
1321,2-phenylethyl (2E)-3-phenylprop-2-enoate,O=C(OCCc1ccccc1)/C=C/c2ccccc2,-5.54268878295
1322,2-phenylethyl 2-hydroxybenzoate,Oc1ccccc1C(=O)OCCc2ccccc2,-4.4891053349
1323,2-phenylethyl 2-methylpropanoate,CC(C)C(=O)OCCc1ccccc1,-3.082423889033333
1324,2-phenylethyl 2-phenylacetate,O=C(Cc1ccccc1)OCCc2ccccc2,-4.11354124865
1325,2-phenylethyl acetate,CC(=O)OCCc1ccccc1,-2.2317574452
1326,2-phenylethyl pivalate,CC(C)(C)C(=O)OCCc1ccccc1,-3.6752800895
1327,2-phenylethyl propanoate,CCC(=O)OCCc1ccccc1,-3.1174443354
1328,2-phenylhexanenitrile,CCCCC(C#N)c1ccccc1,-3.6623544532
1329,2-phenyloxirane,C1OC1c2ccccc2,-1.7545736281500002
1330,2-phenylphenol,Oc1ccccc1c2ccccc2,-2.5067117536
1331,2-phenylpropane-2-peroxol,CC(C)(OO)c1ccccc1,-1.0393798776
1332,2-piperidin-2-ylethanol,OCC[C@@H]1CCCC[NH2+]1,0.6427483546
1333,2-propylheptan-1-ol,CCCCCC(CO)CCC,-3.49053867605
1334,2-propyloxirane,CCCC1CO1,-0.57344678
1335,2-propylpentanoic acid,CCCC(CCC)C(O)=O,-1.8579774272
1336,"2-quinolin-2-yl-1H-indene-1,3(2H)-dione",O=C1C(c2ccc3ccccc3n2)C(=O)c4ccccc14,-5.45496237585
1337,2-sulfanylacetic acid,OC(=O)CS,-1.9643492148
1338,2-sulfanylethan-1-ol,OCCS,1.1071488253
1339,2-tert-Butyl-4-methoxyphenol,COc1ccc(O)c(c1)C(C)(C)C,-2.9274884417
1340,"2-tert-butyl-4,6-dimethylphenol",Cc1cc(C)c(O)c(c1)C(C)(C)C,-3.1719091991
1341,2-tert-butyl-4-[(5-tert-butyl-4-hydroxy-2-methylphenyl)sulfanyl]-5-methylphenol,Cc1cc(O)c(cc1Sc2cc(c(O)cc2C)C(C)(C)C)C(C)(C)C,-7.112066324
1342,2-tert-butyl-4-[1-(5-tert-butyl-4-hydroxy-2-methylphenyl)butyl]-5-methylphenol,CCCC(c1cc(c(O)cc1C)C(C)(C)C)c2cc(c(O)cc2C)C(C)(C)C,-7.9806713528
1343,2-tert-butyl-4-methylphenol,Cc1ccc(O)c(c1)C(C)(C)C,-2.6917536232
1344,2-tert-butyl-5-methylphenol,Cc1ccc(c(O)c1)C(C)(C)C,-2.672674663
1345,2-tert-butyl-6-(3-tert-butyl-2-hydroxy-5-methoxyphenyl)-4-methoxyphenol,COc1cc(c(O)c(c1)C(C)(C)C)c2cc(OC)cc(c2O)C(C)(C)C,-6.7763112575
1346,"2-tert-butyl-6-(5-chloro-2H-1,2,3-benzotriazol-2-yl)-4-methylphenol",Cc1cc(n2nc3ccc(Cl)cc3n2)c(O)c(c1)C(C)(C)C,-6.69838763085
1347,2-tert-butyl-6-[(3-tert-butyl-2-hydroxy-5-methylphenyl)methyl]-4-methylphenol,Cc1cc(Cc2cc(C)cc(c2O)C(C)(C)C)c(O)c(c1)C(C)(C)C,-6.6276831107
1348,2-tert-butyl-6-[(3-tert-butyl-5-ethyl-2-hydroxyphenyl)methyl]-4-ethylphenol,CCc1cc(Cc2cc(CC)cc(c2O)C(C)(C)C)c(O)c(c1)C(C)(C)C,-7.133070470450001
1349,"2-tert-butylbenzene-1,4-diol",CC(C)(C)c1cc(O)ccc1O,-1.220683278
1350,2-tert-butylcyclohexyl acetate,CC(=O)O[C@@H]1CCCC[C@@H]1C(C)(C)C,-4.2973358545
1351,2-tert-butylcyclohexyl ethyl carbonate,CCOC(=O)OC1CCCCC1C(C)(C)C,-4.3211402828
1352,2-tert-butylphenol,CC(C)(C)c1ccccc1O,-2.1899589144
1353,2-tetradecyloctadecan-1-ol,CCCCCCCCCCCCCCCCC(CO)CCCCCCCCCCCCCC,-5.66920434
1354,2-tetradecyloxirane,CCCCCCCCCCCCCCC1CO1,-5.0315054606
1355,"2-{2-[(2,6-dichlorophenyl)amino]phenyl}acetic acid",OC(=O)Cc1ccccc1Nc2c(Cl)cccc2Cl,-4.6202577876
1356,"2-{2-[(8E)-heptadec-8-en-1-yl]-4,5-dihydro-1H-imidazol-1-yl}ethan-1-ol",CCCCCCCC\C=C/CCCCCCCC1=NCCN1CCO,-3.695315761
1357,2-{2-[2-(2-hydroxyethoxy)ethoxy]ethoxy}ethan-1-ol,OCCOCCOCCOCCO,0.7116903978
1358,2-{2-[2-chloro-4-(3-chloro-4-{2-[2-oxo-1-(phenylcarbamoyl)propyl]diazen-1-yl}phenyl)phenyl]diazen-1-yl}-3-oxo-N-phenylbutanamide,CC(=O)C(N=Nc1ccc(cc1Cl)c2ccc(N=NC(C(C)=O)C(=O)Nc3ccccc3)c(Cl)c2)C(=O)Nc4ccccc4,-9.1969385027
1359,"2-{3-[(8E)-pentadec-8-en-1-yl]phenoxymethyl}oxirane; 2-{3-[(8E,11E)-pentadeca-8,11,14-trien-1-yl]phenoxymethyl}oxirane; 2-{3-[(8E,11E)-pentadeca-8,11-dien-1-yl]phenoxymethyl}oxirane",CCCCCC/C=C/CCCCCCCc1cccc(OCC2CO2)c1,-6.0798516889
1360,"2-{6,6-dimethylbicyclo[3.1.1]hept-2-en-2-yl}ethan-1-ol",CC1(C)[C@H]2CC=C(CCO)[C@@H]1C2,-2.6977318857499997
1361,2-{[(2-ethylhexyl)oxy]methyl}oxirane,CCCCC(CC)COCC1CO1,-3.1148651615
1362,"2-{[(2-{[3-(3,5-di-tert-butyl-4-hydroxyphenyl)propanoyl]oxy}ethyl)carbamoyl]formamido}ethyl 3-(3,5-di-tert-butyl-4-hydroxyphenyl)propanoate",CC(C)(C)c1cc(CCC(=O)OCCNC(=O)C(=O)NCCOC(=O)CCc2cc(c(O)c(c2)C(C)(C)C)C(C)(C)C)cc(c1O)C(C)(C)C,-8.6670954079
1363,"2-{[2-(acetyloxy)ethyl]({4-[(E)-2-(2-bromo-4,6-dinitrophenyl)diazen-1-yl]-5-acetamido-2-methoxyphenyl})amino}ethyl acetate",COc1cc(N=Nc2c(Br)cc(cc2[N+]([O-])=O)[N+]([O-])=O)c(NC(C)=O)cc1N(CCOC(C)=O)CCOC(C)=O,-6.356795793166666
1364,"2-{[2-(acetyloxy)ethyl]({4-[(E)-2-(2-chloro-4,6-dinitrophenyl)diazen-1-yl]-5-acetamido-2-methoxyphenyl})amino}ethyl acetate",COc1cc(N=Nc2c(Cl)cc(cc2[N+]([O-])=O)[N+]([O-])=O)c(NC(C)=O)cc1N(CCOC(C)=O)CCOC(C)=O,-6.755613115599999
1365,2-{[2-(acetyloxy)ethyl]({4-[(E)-2-(2-chloro-4-nitrophenyl)diazen-1-yl]-3-acetamidophenyl})amino}ethyl acetate,CC(=O)Nc1cc(ccc1N=Nc2ccc(cc2Cl)[N+]([O-])=O)N(CCOC(C)=O)CCOC(C)=O,-6.9637148666
1366,2-{[2-hydroxy-5-methyl-3-(1-methylcyclohexyl)phenyl]methyl}-4-methyl-6-(1-methylcyclohexyl)phenol,Cc1cc(Cc2cc(C)cc(c2O)C3(C)CCCCC3)c(O)c(c1)C4(C)CCCCC4,-8.1467862166
1367,"2-{[3,3-bis(3-tert-butyl-4-hydroxyphenyl)butanoyl]oxy}ethyl 3,3-bis(3-tert-butyl-4-hydroxyphenyl)butanoate",CC(C)(C)c1cc(ccc1O)C(C)(CC(=O)OCCOC(=O)CC(C)(c2ccc(O)c(c2)C(C)(C)C)c3ccc(O)c(c3)C(C)(C)C)c4ccc(O)c(c4)C(C)(C)C,-6.2014353624
1368,2-{[3-(trifluoromethyl)phenyl]amino}benzoic acid,OC(=O)c1ccccc1Nc2cccc(c2)C(F)(F)F,-4.4905023964
1369,"2-{[3-hydroxy-2,2-bis(hydroxymethyl)propoxy]methyl}-2-(hydroxymethyl)propane-1,3-diol",OCC(CO)(CO)COCC(CO)(CO)CO,-2.0250992531
1370,2-{[4-(oxiran-2-ylmethoxy)butoxy]methyl}oxirane,C(CCOCC1CO1)COCC2CO2,-0.5608137387
1371,2-{methyl[(nonafluorobutyl)sulfonyl]amino}ethyl acrylate,CN(CCOC(=O)C=C)[S](=O)(=O)C(F)(F)C(F)(F)C(F)(F)C(F)(F)F,-5.3087460931
1372,"29H,31H-phthalocyaninato(2-)-N29,N30,N31,N32 copper",[Cu]1N2C3=NC4=NC(=Nc5n1c(N=C6N=C(N=C2c7ccccc37)c8ccccc68)c9ccccc59)c%10ccccc4%10,-8.507909316500001
1373,"2H,4H,4aH,5H,9bH-indeno[1,2-d][1,3]dioxine",C1OCC2Cc3ccccc3C2O1,-1.6560932729
1374,"2H-1,3-benzodioxole-5-carbaldehyde",O=Cc1ccc2OCOc2c1,-2.0303481272
1375,"2H-1,3-dioxol-2-one",O=C1OC=CO1,0.7770765429
1376,2H-chromen-2-one,O=C1Oc2ccccc2C=C1,-1.8860303607
1377,"3,10,17,24-tetraazaoctacyclo[13.13.2.0²,¹?.0?,?.0¹²,²?.0¹?,²?.0¹?,²³.0²?,³?]triaconta-1(28),2,4(9),5,7,12,14,18(23),19,21,24,26,29-tridecaene-11,16-dione",O=C1n2c3ccccc3nc2c4ccc5c6nc7ccccc7n6C(=O)c8ccc1c4c58,-7.7579945848